114
Lattice="9.701879566521324 -5.6013827793764 0.0 0.0 11.202765558752839 0.0 0.0 0.0 40.0" Properties=species:S:1:pos:R:3:momenta:R:3:masses:R:1:forces:R:3:mace_mp_forces:R:3 units="_JSON {\"energy\": \"eV\", \"forces\": \"ev/Ang\", \"stress\": \"ev/Ang^3\", \"time\": \"fs\", \"real_time\": \"s\", \"temperature\": \"K\", \"pressure\": \"GPa\", \"density\": \"g/cm^3\", \"momenta\": \"(eV*u)^0.5\", \"target_temperature\": \"K\"}" time=0.0 step=0 density=8.34617941886282 temperature=263.7724834784964 target_temperature=250.0 model=small arch=mace_mp mace_mp_energy=-660.0377411623782 mace_mp_stress="0.013638610342601526 0.013757597712303631 0.0032918039813752084 -0.0007468590169670824 -0.0002199253860871118 -0.0001861288484124294" system_name=pt441_start_pbc config_type=md energy=-660.0377411623782 free_energy=-660.0377411623782 stress="0.013638610342601526 -0.0001861288484124294 -0.0002199253860871118 -0.0001861288484124294 0.013757597712303631 -0.0007468590169670824 -0.0002199253860871118 -0.0007468590169670824 0.0032918039813752084" pbc="T T T"
H       -0.04437931       7.04605162      21.04884452       0.24837923       0.10966738      -0.02987242       1.00800000       0.24658835      -0.00189941      -1.66550888       0.24658835      -0.00189941      -1.66550888
H       -2.50771964       2.27407477       3.64210367      -0.02073260       0.13610633       0.17161346       1.00800000      -0.24924774      -0.01322702       0.61236326      -0.24924774      -0.01322702       0.61236326
Pt       1.03888423       5.86182221       5.00376706      -5.08383703      -2.61586026       0.93605865     195.08400000      -0.34601355      -0.21050123      -0.49349805      -0.34601355      -0.21050123      -0.49349805
Pt       9.84370294       1.48195748      19.36418338       0.51864753       2.28031489       3.33193001     195.08400000      -0.26945556      -0.86201956       1.32114009      -0.26945556      -0.86201956       1.32114009
Pt       6.68563790      -1.25930475      11.86666328      -2.78002340      -0.45995828       2.44680035     195.08400000      -0.68113043       0.02867311       0.28106990      -0.68113043       0.02867311       0.28106990
Pt       8.17904359      -1.36501115       9.54934243       2.08240321      -0.74649111      -0.52429518     195.08400000       0.51508027       0.89848262      -0.09386233       0.51508027       0.89848262      -0.09386233
Pt       8.25232741      -1.44965570      16.70424265       2.25089272      -1.46535212       0.41788311     195.08400000      -0.35404785       0.14082766      -0.38648450      -0.35404785       0.14082766      -0.38648450
Pt       7.45558569       0.04739931      14.36797646       3.20805568      -2.95301502      -3.04822471     195.08400000      -0.09475343      -0.25264543      -0.77523460      -0.09475343      -0.25264543      -0.77523460
Pt       7.35449252       0.04735742       7.24822306       2.34797651      -1.70599798      -0.76438053     195.08400000       0.37587719      -0.07777703      -0.16259758       0.37587719      -0.07777703      -0.16259758
Pt       1.08538891       8.70445212       4.94480352      -2.85014676      -0.61173879       1.30639192     195.08400000      -0.65451411      -0.38983761      -0.27327168      -0.65451411      -0.38983761      -0.27327168
Pt       9.91655830       4.11807078      19.01429911       1.72720467       1.67046544      -2.95507252     195.08400000      -0.52835013       0.47060171       0.11803534      -0.52835013       0.47060171       0.11803534
Pt       6.62164237       1.49370932      11.92237278      -0.57412157      -1.29802190      -0.26929172     195.08400000       0.00737310      -0.34696489       0.14213399       0.00737310      -0.34696489       0.14213399
Pt       8.29440857       1.60846809       9.55365084       2.66440811       0.78534611      -0.29211025     195.08400000       0.14880181      -1.08771810       0.16449767       0.14880181      -1.08771810       0.16449767
Pt       8.18714243       1.30252749      16.66433607       0.67742277       2.10624004       0.00138587     195.08400000       0.30523982       0.42304246       0.18694476       0.30523982       0.42304246       0.18694476
Pt       7.40454714       2.77381335      14.27270885       1.52398961      -0.69592148       0.06321743     195.08400000       0.30937404       0.55611592       0.05250477       0.30937404       0.55611592       0.05250477
Pt       7.37647905       2.87639804       7.34285793      -0.37216075       1.77651222       0.09902927     195.08400000       0.50032807      -0.13784119      -0.54791393       0.50032807      -0.13784119      -0.54791393
Pt       0.95100437       0.30969610       4.89366166      -2.40597811      -2.11054035      -0.78451891     195.08400000      -0.10384418      -0.43487661      -0.34677798      -0.10384418      -0.43487661      -0.34677798
Pt       9.64742858      -4.13368631      18.99060737       0.61471489       3.84736861       1.12646461     195.08400000       0.87236111      -0.29671379       0.10157261       0.87236111      -0.29671379       0.10157261
Pt       6.59978923       4.26820350      12.00901161      -0.80123645       2.01994750       2.45686844     195.08400000      -0.13245306       0.24437085      -0.38398040      -0.13245306       0.24437085      -0.38398040
Pt       8.26321581       4.29804883       9.49713184       0.34558502       2.20278123      -2.44825138     195.08400000      -0.30201150       0.51658247       0.37672699      -0.30201150       0.51658247       0.37672699
Pt       8.26807719       4.09527943      16.71825474       3.93953657      -1.46854776       0.52682671     195.08400000      -0.41248181       0.45453456      -0.29479054      -0.41248181       0.45453456      -0.29479054
Pt       7.46040394       5.63999048      14.24152092      -2.74962780       1.06670974       1.39731885     195.08400000      -0.20464319      -0.03634615       0.23437265      -0.20464319      -0.03634615       0.23437265
Pt       7.45445383       5.71809301       7.20497036      -4.60412278       0.09647052      -1.13637623     195.08400000      -0.09442425      -0.25087314       0.26405982      -0.09442425      -0.25087314       0.26405982
Pt       0.78055712       3.03591406       4.65186180       1.28603171      -3.04017780       3.94641802     195.08400000       0.46796498      -0.02614096       0.48000394       0.46796498      -0.02614096       0.48000394
Pt       9.81418214      -1.44459847      18.88999352       0.00873878      -0.51206180      -1.88279597     195.08400000       0.20054681       0.39371590       0.37676860       0.20054681       0.39371590       0.37676860
Pt       6.65779728       7.11649884      11.95464458       2.38267447       3.39789037      -2.66635297     195.08400000      -0.22689769      -0.06424475       0.01787098      -0.22689769      -0.06424475       0.01787098
Pt       8.17006051      -4.04036964       9.59457095      -0.73770606       2.03061891       1.00861168     195.08400000       0.21508943      -0.87030654       0.18346389       0.21508943      -0.87030654       0.18346389
Pt       8.29626216      -4.18873142      16.60260353      -1.33246181       0.62427349       2.03934112     195.08400000      -0.00257295      -0.31662172      -0.25146317      -0.00257295      -0.31662172      -0.25146317
Pt       7.45407991      -2.72515614      14.31041993      -1.54052345       1.21373153       2.21647762     195.08400000      -0.70981090       0.10284996      -0.25505990      -0.70981090       0.10284996      -0.25505990
Pt       7.29931434      -2.75464688       7.31465467       0.49912067      -1.19597475       1.20774690     195.08400000       0.47117911       0.27285947      -0.57600628       0.47117911       0.27285947      -0.57600628
Pt       3.34060616       4.36793227       4.82012858      -0.63488466       5.04812256      -2.07706680     195.08400000      -0.06165334      -0.06601121      -0.04076092      -0.06165334      -0.06601121      -0.04076092
Pt       2.64004782       5.56314840      18.97210261       0.97796625       2.99221738      -0.93160014     195.08400000      -0.46508086      -0.06826756       0.15902992      -0.46508086      -0.06826756       0.15902992
Pt       9.02047643      -2.54927800      11.87922586      -2.21743992      -2.15893606      -1.75578861     195.08400000       0.39327114      -0.69345382       0.04223903       0.39327114      -0.69345382       0.04223903
Pt       0.95799923       2.77056608       9.56496191      -0.81433219       0.29139195       0.20308324     195.08400000      -0.38533047       0.63419094       0.12757445      -0.38533047       0.63419094       0.12757445
Pt       1.06479687       2.84870202      16.53603360       1.72865059       1.08045936      -3.32545746     195.08400000      -0.43194680      -0.35362661      -0.19440393      -0.43194680      -0.35362661      -0.19440393
Pt       9.77451817      -1.31552182      14.21130946       2.63061184      -1.33905161      -3.37004308     195.08400000       0.82377587      -0.11490856       0.10517683       0.82377587      -0.11490856       0.10517683
Pt       0.05678634       4.32766998       7.13010486       1.13453030      -0.18651646      -1.28642721     195.08400000       0.16817817      -0.23762598       0.49178047       0.16817817      -0.23762598       0.49178047
Pt       3.44938346       7.14657692       4.89200846      -0.72992394       2.00261600      -0.05321620     195.08400000       0.25339230       0.04626918      -0.29489213       0.25339230       0.04626918      -0.29489213
Pt       2.56847753       8.26311822      19.10095942      -0.04712331       0.55961431      -2.70024478     195.08400000      -0.05167076       0.19587320      -0.11044097      -0.05167076       0.19587320      -0.11044097
Pt       9.02289049       0.24246016      11.97454046       0.47586615      -0.39716959       1.65914791     195.08400000       0.32618351      -0.47762232      -0.44476792       0.32618351      -0.47762232      -0.44476792
Pt       1.03402358       5.69498845       9.47943187       0.53434870       4.01121595       1.20406373     195.08400000      -0.80502900      -0.55108038       0.30222377      -0.80502900      -0.55108038       0.30222377
Pt       0.91277804       5.60259831      16.57057028       0.68605406      -1.18218939      -2.29796403     195.08400000       0.18620094       0.33318479       0.15796854       0.18620094       0.33318479       0.15796854
Pt       9.86262656       1.51278203      14.31768755      -1.65085201       3.77090846       1.12910568     195.08400000      -0.10864589      -0.06193705      -0.30511751      -0.10864589      -0.06193705      -0.30511751
Pt       0.11900392       7.14942825       7.17885381      -0.43392178       2.75008321      -4.23268341     195.08400000      -0.02332632      -0.16758745       0.28711841      -0.02332632      -0.16758745       0.28711841
Pt       3.40430998      -1.25430632       4.75916828      -1.51250858      -0.30701910      -5.37318532     195.08400000       0.16754366       0.55487156      -0.13157652       0.16754366       0.55487156      -0.13157652
Pt       2.48267628      -0.06599525      19.07964497       3.65480634       3.14338858      -1.05038610     195.08400000       0.23960940       0.44890750      -0.18829299       0.23960940       0.44890750      -0.18829299
Pt       8.97237258       2.95329576      11.87048494       0.40026629      -0.27974250       2.67164853     195.08400000       0.64506047      -0.29278045       0.31800482       0.64506047      -0.29278045       0.31800482
Pt       1.06307429       8.40170912       9.53651939       2.13425262       0.22055879       5.05222714     195.08400000      -0.09149456       0.62460537       0.07436791      -0.09149456       0.62460537       0.07436791
Pt       0.89947185       8.37799334      16.64993607      -1.63473400      -0.68471158       1.05861314     195.08400000       0.36119292      -0.35271578      -0.00057115       0.36119292      -0.35271578      -0.00057115
Pt       9.85758238       4.30920257      14.37476325       1.07685388       1.53558189      -0.11756521     195.08400000      -0.19350998       0.04192444      -0.22578681      -0.19350998       0.04192444      -0.22578681
Pt       0.23200832       9.89432808       7.27530625       2.56032669       2.08884924       1.96688420     195.08400000      -0.35566433       0.12759854      -0.00117237      -0.35566433       0.12759854      -0.00117237
Pt       3.30272556       1.65918343       4.72820606       0.85273564       2.39291683      -1.23831269     195.08400000      -0.01581642      -0.04675876       0.06224539      -0.01581642      -0.04675876       0.06224539
Pt       2.59265519       2.85257145      19.06322140       3.61086663       1.02221934       1.33325369     195.08400000      -0.13460710      -0.43839167      -0.21160692      -0.13460710      -0.43839167      -0.21160692
Pt       9.02331007       5.58604053      11.93667665      -2.66893381      -2.80055793      -2.61675227     195.08400000      -0.00922376       0.87307196      -0.14603858      -0.00922376       0.87307196      -0.14603858
Pt       0.91989891       0.01266438       9.63727708       3.24528715      -0.64331746      -1.82659010     195.08400000       0.05385480       0.20958532      -0.31362640       0.05385480       0.20958532      -0.31362640
Pt       0.97824199      -0.00209792      16.74554732       0.68156033      -5.05547882       5.54545846     195.08400000      -0.13871888       0.32285359      -0.43021754      -0.13871888       0.32285359      -0.43021754
Pt       9.72505724      -4.11076385      14.21617098       3.68283608      -0.01282475      -0.47610513     195.08400000       1.04648288      -0.01264073       0.03065752       1.04648288      -0.01264073       0.03065752
Pt       0.17992817       1.48242595       7.23967236       1.48777492       0.99865785       0.67712862     195.08400000      -0.62266105       0.22387485       0.22505980      -0.62266105       0.22387485       0.22505980
Pt       5.71242944       3.00199997       4.71501600       0.12112195       1.41950210       0.47664889     195.08400000       0.27986231       0.24446693       0.12100637       0.27986231       0.24446693       0.12100637
Pt       5.04657010       4.12778951      19.07913193      -0.47811244      -1.07225141       2.20563072     195.08400000      -0.05581650       0.08057563      -0.19343822      -0.05581650       0.08057563      -0.19343822
Pt       1.72824337       1.49829186      11.94509079       0.45914511      -0.02840559      -1.63130901     195.08400000      -0.18344948       0.35707520       0.03075302      -0.18344948       0.35707520       0.03075302
Pt       3.32619691       1.41799924       9.51078737      -0.66009517      -0.26464370      -0.50533421     195.08400000       0.19386601       0.13634156      -0.09616753       0.19386601       0.13634156      -0.09616753
Pt       3.38613868       1.43114176      16.75012022       1.00570779       0.45148144      -0.20851393     195.08400000      -0.35896339      -0.06035384      -0.45710471      -0.35896339      -0.06035384      -0.45710471
Pt       2.69907549       2.83505783      14.24870756      -0.22237209      -0.26465226       2.13030446     195.08400000      -0.58553968       0.56640325      -0.12668060      -0.58553968       0.56640325      -0.12668060
Pt       2.49215504       2.88500604       7.24946769       0.12683173       3.91044167       2.27031685     195.08400000       0.35178413       0.27647611      -0.35185001       0.35178413       0.27647611      -0.35185001
Pt       5.72943955       5.72185934       4.58060085      -1.78205204      -2.01946123       4.52583439     195.08400000      -0.05539257      -0.16867462       0.65345582      -0.05539257      -0.16867462       0.65345582
Pt       4.99322471       6.92541998      19.01274511      -1.78637844      -4.56801080       2.19268495     195.08400000      -0.14103683      -0.19465640       0.12427558      -0.14103683      -0.19465640       0.12427558
Pt       1.79465049       4.27947996      11.84159780       4.64146930      -0.44802851       0.64778014     195.08400000      -0.15187920       0.05111046       0.15886758      -0.15187920       0.05111046       0.15886758
Pt       3.36215136       4.17946628       9.47327962      -0.56869398       2.16315942       2.23141107     195.08400000       0.03451593       0.17787159       0.36515417       0.03451593       0.17787159       0.36515417
Pt       3.33531380       4.30914228      16.61552404      -6.54654722       1.17223323      -2.04603055     195.08400000       0.39443872      -0.19256278      -0.33255202       0.39443872      -0.19256278      -0.33255202
Pt       2.51142997       5.69162045      14.18015546       2.61129229      -2.45758568       0.60568332     195.08400000       0.13470377      -0.09913615       0.04487317       0.13470377      -0.09913615       0.04487317
Pt       2.61226895       5.70224680       7.25246962      -0.06882969      -1.35367177      -2.85733356     195.08400000      -0.05111576      -0.36263956      -0.21573852      -0.05111576      -0.36263956      -0.21573852
Pt       5.78377696      -2.55316485       4.65884584      -2.50072463      -0.87578956      -1.34938498     195.08400000       0.79791507      -0.48071829      -0.21107573       0.79791507      -0.48071829      -0.21107573
Pt       4.82666939      -1.49535615      18.96211284       4.15683435      -0.22971698       1.31191780     195.08400000       0.60071471       0.50078571       0.01744525       0.60071471       0.50078571       0.01744525
Pt       1.74591962       7.13063615      11.84724840      -1.79497657      -1.89308941      -1.60126177     195.08400000       0.15413266      -0.00838840       0.31143958       0.15413266      -0.00838840       0.31143958
Pt       3.43009879       7.04286402       9.53427180       0.96528244      -0.92792528      -1.77302697     195.08400000      -0.20289459       0.21132302       0.36455069      -0.20289459       0.21132302       0.36455069
Pt       3.45550988       7.04585237      16.61501966       1.05085095      -1.25799959      -1.29854613     195.08400000      -1.18079059      -0.16367484      -0.07521749      -1.18079059      -0.16367484      -0.07521749
Pt       2.46020099       8.56161475      14.22390349      -2.46413103      -1.05588978      -1.59584312     195.08400000       0.57614662      -0.35663069      -0.03135083       0.57614662      -0.35663069      -0.03135083
Pt       2.65912791       8.51180645       7.17858488      -1.73218837       0.75031988      -0.76394221     195.08400000      -0.74847554      -0.40472954       0.46138716      -0.74847554      -0.40472954       0.46138716
Pt       5.74633800       0.32904371       4.70222651       0.83492013       2.70791537       2.10211571     195.08400000       0.25958679      -0.71941123      -0.07371837       0.25958679      -0.71941123      -0.07371837
Pt       5.06477158       1.37375184      18.85177193      -3.42019006       0.34522157      -1.61358958     195.08400000      -0.48141120      -0.31686346       0.47090975      -0.48141120      -0.31686346       0.47090975
Pt       1.79953234       9.98947959      11.88785137      -0.01617793       2.13824981       0.64427717     195.08400000      -0.15118688      -0.79478793       0.16687692      -0.15118688      -0.79478793       0.16687692
Pt       3.46293311      -1.26673990       9.53523030      -0.02625461      -0.27105832       0.00097359     195.08400000      -0.34089235      -0.37172141      -0.00604399      -0.34089235      -0.37172141      -0.00604399
Pt       3.29475620      -1.41446634      16.64488848      -2.70944096      -0.20222574       2.32137011     195.08400000       0.31745180       0.17244819      -0.32193027       0.31745180       0.17244819      -0.32193027
Pt       2.59324996       0.16174801      14.22521919      -1.29237089       0.10038237       2.40229269     195.08400000      -0.44220026      -0.34882705       0.39885196      -0.44220026      -0.34882705       0.39885196
Pt       2.57433336       0.14014594       7.12472784       4.34320512      -4.25545671      -0.79177171     195.08400000       0.06550517      -0.11501873       0.33673038       0.06550517      -0.11501873       0.33673038
Pt       8.21608683       1.59159782       4.90225633      -1.69874628      -1.32574636       2.65271060     195.08400000       0.01995254      -0.04127499      -0.05586320       0.01995254      -0.04127499      -0.05586320
Pt       7.38343112       2.67229032      19.02694147       0.34573346      -0.05889173      -1.93470039     195.08400000       0.22758336       0.52242734      -0.05396079       0.22758336       0.52242734      -0.05396079
Pt       4.18085839       0.11098634      11.83669072       2.89522081      -1.20841882      -0.55507464     195.08400000       0.40331966      -0.33147631       0.28956229       0.40331966      -0.33147631       0.28956229
Pt       5.83689789       0.18688073       9.47043423       1.10645874      -0.67165010       0.34572273     195.08400000      -0.01644836      -0.87446189       0.33185186      -0.01644836      -0.87446189       0.33185186
Pt       5.74317372       0.07073077      16.40468882      -0.08833197      -0.33836795      -2.63028842     195.08400000      -0.02332024      -0.86746479       1.26192962      -0.02332024      -0.86746479       1.26192962
Pt       5.01065005       1.42681919      14.29603909      -0.22641370       5.09499828      -0.89371910     195.08400000      -0.24912723       0.44752043      -0.89066491      -0.24912723       0.44752043      -0.89066491
Pt       5.01359447       1.37897486       7.06111341      -0.72916023       0.43381612       0.11703008     195.08400000      -0.35236250       0.49922673       0.40619934      -0.35236250       0.49922673       0.40619934
Pt       8.22437566       4.28263606       4.91847295      -1.71365472      -1.24762253      -1.65885878     195.08400000      -0.08866490       0.14966888      -0.04633114      -0.08866490       0.14966888      -0.04633114
Pt       7.40721765       5.57778091      18.97015692       0.17200519      -3.02580182       0.68781831     195.08400000      -0.03984357      -0.50019351       0.00029390      -0.03984357      -0.50019351       0.00029390
Pt       4.25299516       2.79929143      11.80856240      -0.56004342       0.26954754      -0.33026409     195.08400000      -0.66389408       0.56088375       0.67447852      -0.66389408       0.56088375       0.67447852
Pt       5.81338893       2.79531291       9.63474796       0.38119921      -2.66282111       1.67328461     195.08400000      -0.02419167       0.75763392      -0.35500428      -0.02419167       0.75763392      -0.35500428
Pt       5.76526176       2.87751861      16.47954284       0.83755831      -2.06533612      -1.78380811     195.08400000       0.07983119       0.15432764       0.39694112       0.07983119       0.15432764       0.39694112
Pt       5.00757918       4.37163668      14.25050151      -4.53385993      -0.49406106      -0.58185106     195.08400000      -0.32567272      -0.60614928      -0.20918362      -0.32567272      -0.60614928      -0.20918362
Pt       5.10701556       4.16518127       7.27608972       1.12130683      -6.92872476      -6.04412425     195.08400000      -0.75464789       0.53862957      -0.11503770      -0.75464789       0.53862957      -0.11503770
Pt       8.16101601      -4.18392908       4.87932355       2.22465322       1.91825145       0.28933072     195.08400000      -0.32964982       0.90083311      -0.72200930      -0.32964982       0.90083311      -0.72200930
Pt       7.25032114      -2.88336388      18.86615004      -2.86368018      -0.27957086       3.77257250     195.08400000       0.20090789       0.57584698       0.33077121       0.20090789       0.57584698       0.33077121
Pt       4.17366546       5.65833097      11.86095195       0.65300478      -0.64171802      -1.23393462     195.08400000      -0.03981986       0.16240983       0.45105818      -0.03981986       0.16240983       0.45105818
Pt       5.72407709       5.59136297       9.64933830      -3.08973506       0.58141634       4.97989523     195.08400000       0.79515454       0.08257587      -0.16255067       0.79515454       0.08257587      -0.16255067
Pt       5.84583941       5.64835615      16.53442506      -1.17316905      -0.58242062       1.14520813     195.08400000       0.29747250      -0.62511722       0.30847193       0.29747250      -0.62511722       0.30847193
Pt       4.95752577       7.05646866      14.35647461      -2.81802177       1.40202613       0.00136043     195.08400000      -0.11102667       0.32629066      -1.31362618      -0.11102667       0.32629066      -1.31362618
Pt       5.01524990       7.01571646       7.28221178      -2.33288543       0.18935793       3.66774455     195.08400000       0.13104353      -0.21024498      -0.27277545       0.13104353      -0.21024498      -0.27277545
Pt       8.25148197      -1.14492963       4.80739649      -0.73192467      -2.99111198       1.54949569     195.08400000      -0.36614509       0.16070315       0.16506297      -0.36614509       0.16070315       0.16506297
Pt       7.35256954      -0.04204449      19.03923302      -1.64216004       2.30318276      -0.68191815     195.08400000       0.01779223      -0.33095692      -0.25132998       0.01779223      -0.33095692      -0.25132998
Pt       4.22181892       8.50181223      11.93063881       2.96157675      -0.21308185      -1.57702118     195.08400000      -0.06758360      -0.14307275       0.08240099      -0.06758360      -0.14307275       0.08240099
Pt       5.73475867      -2.75695288       9.57618368       0.86921908      -0.37069770      -2.42195111     195.08400000       0.19201127       0.30859404       0.30222449       0.19201127       0.30859404       0.30222449
Pt       5.75766371      -2.86615595      16.53389997       0.01046706      -2.44518085      -3.33749037     195.08400000       0.55868155       1.27094885       0.22369975       0.55868155       1.27094885       0.22369975
Pt       4.91336641      -1.33385187      14.24057844       0.60805815       0.19800535       3.16548610     195.08400000       0.30170640      -0.33923737      -0.27522306       0.30170640      -0.33923737      -0.27522306
Pt       4.87907549      -1.37473335       7.12090048      -1.91584403       0.10150648      -2.08607655     195.08400000       1.15784435       0.30754208       0.21365134       1.15784435       0.30754208       0.21365134
114
Lattice="9.701879566521324 -5.6013827793764 0.0 0.0 11.202765558752839 0.0 0.0 0.0 40.0" Properties=species:S:1:pos:R:3:momenta:R:3:masses:R:1:forces:R:3:mace_mp_forces:R:3 units="_JSON {\"energy\": \"eV\", \"forces\": \"ev/Ang\", \"stress\": \"ev/Ang^3\", \"time\": \"fs\", \"real_time\": \"s\", \"temperature\": \"K\", \"pressure\": \"GPa\", \"density\": \"g/cm^3\", \"momenta\": \"(eV*u)^0.5\", \"target_temperature\": \"K\"}" time=5.000000000000001 step=25 density=8.34617941886282 temperature=265.55351062625107 target_temperature=250.0 model=small arch=mace_mp mace_mp_energy=-660.1714405224416 mace_mp_stress="0.013312785282331008 0.013548696006829482 0.002313460001945948 -0.0007240130753335812 -8.655855316156555e-05 -4.791951417526571e-05" system_name=pt441_start_pbc config_type=md energy=-660.1714405224416 free_energy=-660.1714405224416 stress="0.013312785282331008 -4.791951417526571e-05 -8.655855316156555e-05 -4.791951417526571e-05 0.013548696006829482 -0.0007240130753335812 -8.655855316156555e-05 -0.0007240130753335812 0.002313460001945948" pbc="T T T"
H        0.09886111       7.07575583      20.90963949       0.28898280       0.02767573      -0.42096003       1.00800000       0.01064642      -0.07323814       0.04803777       0.01064642      -0.07323814       0.04803777
H       -2.53343455       2.34256467       3.77835748      -0.13842192       0.14762449       0.35023086       1.00800000      -0.13451289      -0.01023124      -0.14193450      -0.13451289      -0.01023124      -0.14193450
Pt       1.02580606       5.85493682       5.00556746      -4.86274978      -2.98286409       0.38434388     195.08400000      -0.28037904      -0.18053544      -0.52025173      -0.28037904      -0.18053544      -0.52025173
Pt       9.84474756       1.48892496      19.37352913       0.51082092       2.82150847       3.53426763     195.08400000      -0.07511049      -0.80819449      -0.39635202      -0.07511049      -0.80819449      -0.39635202
Pt       6.67930642      -1.26103350      11.87424893      -2.17409864      -0.77079274       3.20725590     195.08400000      -0.61307463       0.04169489       0.23188056      -0.61307463       0.04169489       0.23188056
Pt       8.18476574      -1.36621816       9.54713463       2.41067542      -0.22833217      -1.31244824     195.08400000       0.48985790       0.95447088      -0.06701020       0.48985790       0.95447088      -0.06701020
Pt       8.25708865      -1.45362156      16.70465987       1.44166239      -1.63780669       0.07096113     195.08400000      -0.38457119       0.17424982      -0.37762519      -0.38457119       0.17424982      -0.37762519
Pt       7.46379291       0.04000999      14.36060995       3.21242003      -2.73572050      -2.91731601     195.08400000      -0.15621655      -0.17425941      -0.68919586      -0.15621655      -0.17425941      -0.68919586
Pt       7.36054711       0.04248817       7.24660500       1.97419566      -1.96765281      -0.41374361     195.08400000       0.30573102      -0.03581459      -0.13568061       0.30573102      -0.03581459      -0.13568061
Pt       1.07918388       8.70345014       4.94832658      -2.27728829      -0.42483970       1.05949982     195.08400000      -0.62450300      -0.38134526      -0.30109227      -0.62450300      -0.38134526      -0.30109227