ITEM: TIMESTEP
7672000
ITEM: NUMBER OF ATOMS
16150
ITEM: BOX BOUNDS pp pp pp
-1.1146844763367676e-01 5.9711468441697448e+01
-1.1146844763367676e-01 5.9711468441697448e+01
-1.1146844763367676e-01 5.9711468441697448e+01
ITEM: ATOMS element xu yu zu
O -78.8302 132.699 -67.5216
CA -9.94687 43.1087 25.8598
O -112.92 -143.941 -50.4979
CA 328.332 -15.901 21.7726
O 139.209 84.5658 73.356
CA -160.347 34.6009 377.31
O 201.089 63.8142 89.404
CA 221.926 -7.62126 142.485
O -122.022 99.6804 135.389
CA -41.9376 380.378 29.0428
O 147.513 109.809 110.422
CA 171.449 324.941 107.508
O -32.837 26.7524 -66.0416
CA 218.87 44.7817 146.535
O -273.022 122.391 -43.5028
CA 260.403 98.013 127.044
O 144.084 -234.965 145.374
CA -54.0451 250.462 78.4057
O -295.081 38.8573 100.37
CA 142.962 -36.5074 -99.9725
O 109.39 82.9153 84.7177
CA -128.162 -62.1784 162.237
O 96.9688 -21.5364 -36.8767
CA 213.231 132.872 44.5008
O -13.9713 285.894 18.1251
CA 25.3795 97.2871 -401.004
O -28.2933 -167.132 -89.1362
CA -63.4612 32.7913 84.4023
O 137.148 -54.1033 243.755
CA 65.5912 -84.6436 -221.082
O -190.086 111.196 -111.444
CA 51.2283 -42.3994 -137.527
O 29.4629 167.715 -34.5344
CA -138.534 -88.9811 168.347
O -19.7802 287.993 122.596
CA 230.98 -91.7744 -179.621
O 61.3535 48.4331 -33.9474
CA 1.4179 403.835 15.4712
O 19.9128 399.075 -139.018
CA 17.9414 183.032 -163.899
O -72.4546 42.7381 178.759
CA -112.463 118.591 281.789
O 93.0318 43.3925 -235.309
CA -196.297 177.233 -213.713
O 228.748 236.459 28.3863
CA -103.014 -83.5363 80.2486
O -1.19613 -52.8841 81.369
CA -278.239 59.0302 -41.2712
O 18.7973 -37.9519 38.5602
CA 19.9377 -127.39 -39.8728
O -1.38187 -32.6422 236.041
CA 328.261 168.389 6.42829
O 371.251 39.066 132.672
CA 162.425 -135.074 -188.815
O -177.995 94.3367 -25.1621
CA -44.3859 66.375 65.0877
O -39.1495 26.8028 145.199
CA 46.7122 -117.035 -123.939
O 80.1569 -112.15 -127.93
CA -10.5341 124.3 -237.91
O 146.273 217.958 259.062
CA 18.4952 -268.26 292.382
O 55.2356 2.65848 29.8253
CA 312.354 -160.902 65.3891
O -225.558 49.375 231.662
CA -379.041 256.193 -77.6653
O 112.823 -151.114 -14.6036
CA -99.129 -109.913 129.464
O 37.8715 -103.431 -97.1737
CA -211.068 -181.323 139.312
O 237.069 121.298 202.969
CA -101.152 175.221 -28.0739
O -56.2229 166.981 158.596
CA 146.039 -312.556 -68.9383
O -72.4743 -88.5944 -86.5777
CA 289.407 -176.61 262.387
O -1.21188 -133.23 -421.504
CA -47.669 505.382 92.2707
O -6.82426 215.88 114.492
CA -179.421 397.462 -15.2505
O -31.1137 317.261 121.304
CA 168.434 81.1458 49.8619
O -245.598 -87.3034 181.919
CA 6.40439 58.1081 -158.063
O -233.601 260.274 200.011
CA 128.963 -67.0602 -18.6019
O 214.091 -115.744 81.6893
CA 10.3109 73.5381 -323.98
O -298.283 215.461 63.8398
CA 280.247 -53.989 -51.7106
O -181.258 132.829 -48.2505
CA 107.773 453.045 -203.528
O 211.611 178.453 376.867
CA 372.731 42.6562 38.673
O 209.606 181.087 -47.4436
CA -55.0971 169.492 352.53
O 76.7138 25.3469 132.727
CA 59.1218 80.5497 143.791
O 28.2027 -184.438 -141.696
CA -29.3971 36.4382 324.283
O 53.462 73.4395 86.8765
CA 115.644 131.193 -420.443
O 208.271 -42.5171 175.931
CA -280.325 -77.7471 94.6397
O -0.364475 -171.139 78.2997
CA -28.7827 412.741 -35.812
O 72.9629 264.578 -77.1463
CA -9.71339 -228.992 -312.137
O 54.3095 -227.853 225.399
CA 399.55 130.548 -208.805
O -196.667 133.898 223.578
CA -4.10118 48.34 -24.9012
O 137.729 152.308 -85.4908
CA 30.6238 -113.899 246.145
O -10.6322 216.201 8.95241
CA 116.093 -204.901 228.298
O -129.604 49.1867 36.5315
CA -6.39574 -236.315 -31.4123
O 126.795 -73.2359 -50.1709
CA 289.513 266.615 -169.679
O -293.146 -156.065 -149.932
CA -268.737 24.1296 -72.4269
O -112.437 275.786 -138.497
CA -206.007 -12.6541 -83.4027
O 158.061 200.578 -119.996
CA 187.713 -109.804 -15.0848
O -183.435 -185.19 165.997
CA 253.945 -170.247 -159.404
O 34.2496 -73.1425 -69.4791
CA -82.952 341.568 -117.747
O -57.1798 400.465 275.853
CA 338.392 243.814 -27.6931
O -69.1071 -31.3156 74.3988
CA -7.05714 281.2 -201.051
O 28.7676 -125.829 139.228
CA 66.9638 162.093 48.687
O -183.253 116.964 163.787
CA 164.062 103.25 -315.059
O -124.621 -96.8145 -53.9733
CA 216.435 187.074 -210.084
O -90.9963 -16.6233 107.595
CA 51.6552 -167.472 367.072
O -132.949 4.5746 -156.369
CA 99.7579 164.567 12.4384
O -50.4418 79.3636 -194.443
CA -12.2474 74.9455 94.5743
O -60.1439 -79.169 125.221
CA 239.409 -127.347 49.4982
O 76.0818 -149.595 172.96
CA 281.936 25.8951 31.7125
O -50.5368 3.61749 -18.8056
CA 233.997 -18.9018 101.639
O -49.8884 86.7411 22.0139
CA -27.6284 108.52 149.58
O 153.644 -140.026 -171.09
CA 309.931 -203.527 -94.2897
O -247.102 -24.3781 4.41601
CA -46.1724 -69.4654 354.95
O -17.6578 44.1898 -38.4232
CA 292.579 -8.39229 258.794
O 10.3003 189.388 -61.808
CA 368.378 46.8945 -106.679
O 2.10409 -102.006 25.1516
CA 0.836249 -158.662 21.0102
O 32.2704 8.40284 21.283
CA 1.5805 -20.6016 -152.881
O -84.5237 -1.98571 235.791
CA -186.66 -36.6698 5.16735
O -151.049 24.5828 -151.167
CA 53.6845 45.4163 -143.43
O 167.399 -129.875 -93.5648
CA -63.0518 276.08 17.233
O -44.9701 4.91375 25.4513
CA 161.404 -414.725 -158.175
O 103.397 -7.14615 -119.428
CA -77.4493 182.58 -101.744
O -22.386 126.854 -99.8843
CA 276.051 -92.3849 120.224
O 68.4748 192.622 -176.684
CA 105.893 -177.867 131.5
O 281.884 268.37 108.363
CA 17.2686 193.838 -59.0676
O -194.904 -19.3007 -36.7179
CA -5.60202 -122.177 -304.871
O -232.481 422.98 -137.912
CA 48.7275 150.804 371.484
O 259.857 175.434 -66.7568
CA 413.898 -140.158 -165.712
O -39.5438 -121.325 108.618
CA 3.61867 -11.4171 130.858
O 60.2904 -63.9906 160.405
CA 208.136 128.084 329.316
O 53.3989 -94.0525 116.632
CA 301.601 -207.787 -119.011
O -19.017 -76.6188 -168.282
CA -150.595 24.0403 22.0998
O -235.336 -83.2085 266.594
CA -58.2227 -37.9678 29.5492
O 52.9581 -21.1751 61.9635
CA 70.7265 182.612 52.824
O -19.5759 -87.6057 56.3421
CA -48.1254 -18.0617 296.498
O 54.9034 -39.6801 -17.8547
CA 237.727 47.8428 342.767
O 36.6542 26.581 75.2333
CA -81.9852 -2.41515 150.725
O -78.5342 -92.9697 296.387
CA 60.9237 27.6953 15.8272
O 82.6449 -119.534 -51.9042
CA -16.2782 -83.2818 -22.2612
O 149.466 136.603 238.775
CA 13.6516 -57.1884 -142.661
O 47.59 -32.6615 133.185
CA -45.9437 53.3619 104.473
O 156.364 99.0562 188.997
CA -93.3799 33.1778 -171.379
O 82.5493 52.2071 -50.08
CA 45.8023 20.2533 199.324
O 193.115 -58.5688 320.673
CA 302.067 -80.0628 302.738
O 85.5765 -102.991 -23.9127
CA 36.4514 -102.512 -17.4476
O 223.023 -25.5546 107.113
CA 1.74412 133.462 -75.212
O 109.812 26.709 251.662
CA -143.7 233.753 29.2643
O -49.6728 176.192 -6.72382
CA 283.375 -266.634 -254.364
O 61.4733 6.56891 117.845
CA 17.7051 155.907 503.063
O 94.0477 -102.148 -27.2891
CA -79.2428 -6.81198 273.075
O 12.9993 243.614 103.559
CA 208.743 -7.06565 401.415
O -28.7899 76.8918 62.4633
CA 93.4796 179.22 -103.401
O -136.365 134.711 -457.381
CA 366.152 -1.01828 10.1404
O -6.41091 82.8968 132.502
CA -155.07 -206.302 -16.7922
O -71.6486 -0.884132 -53.2143
CA 52.8226 -143.204 2.20024
O 154.316 199.507 315.59
CA 226.824 -302.972 215.195
O 194.529 -265.812 71.8852
CA -16.3955 114.352 33.2624
O 184.606 122.715 -255.179
CA 259.919 -71.2662 -17.7898
O -9.55439 53.9205 213.195
CA 248.777 86.7367 104.953
O -287.205 71.3309 -255.537
CA 71.4173 41.0876 35.7345
O -249.432 -121.346 203.692
CA 305.685 -114.504 270.156
O -128.465 -113.438 -73.7875
CA -145.727 -5.74546 -124.194
O -12.283 119.403 24.5257
CA -42.5394 274.06 42.0083
O 99.6602 23.4453 61.4231
CA 42.6052 319.934 37.2887
O -3.90393 -110.797 27.751
CA 306.865 218.589 8.60947
O 52.6698 -11.036 162.603
CA 81.8334 -11.5522 143.238
O 206.635 -131.148 83.7718
CA -36.1824 -22.3321 12.5523
O 114.993 58.0414 100.021
CA 59.2323 -320.815 -182.784
O -105.673 130.833 116.971
CA 1.02005 358.411 96.1512
O -96.9507 78.0175 40.8908
CA 240.318 186.861 80.1313
O 84.7279 93.5104 138.305
CA 39.8189 83.5181 151.123
O 270.927 -3.02424 -75.3824
CA -292.87 309.577 -116.613
O 64.2054 -313.005 128.037
CA 258.534 130.854 -180.472
O 127.552 -128.408 -102.844
CA -13.9368 62.3522 321.081
O -85.2017 -212.251 60.4739
CA -220.16 122.611 161.029
O -244.58 73.5038 -38.7312
CA -13.5512 -33.2563 -295.567
O 156.209 186.787 -4.57711
CA -97.8915 388.653 93.0543
O -69.8819 -5.71784 54.5304
CA 16.24 -44.2207 109.847
O -125.875 -10.8044 -52.8785
CA -69.9503 119.66 -111.645
O -250.874 -170.418 -82.284
CA 81.759 103.359 -97.4746
O 148.85 -84.0499 -148.627
CA 359.566 217.245 217.154
O 401.388 76.1169 -93.5362
CA 549.711 -48.5248 190.595
O 78.963 13.6133 140.003
CA -241.776 323.671 -192.637
O -72.5301 117.326 242.51
CA 19.0675 -106.935 353.984
O -9.37816 227.791 258.657
CA 155.41 178.662 -121.168
O 129.344 -20.2322 164.449
CA -137.058 180.617 109.102
O 232.482 -109.232 -53.2739
CA 219.344 -25.4595 -18.8663
O 53.6661 79.0748 -2.36832
CA 20.5597 447.748 -51.0802
O -197.122 -66.3514 27.4486
CA -210.892 -80.3949 -77.257
O -233.647 -197.96 233.727
CA 149.25 -18.3816 155.898
O -48.9707 32.9649 -3.8137
CA -148.542 -67.2187 -303.754
O 3.15018 -106.538 141.841
CA -233.832 -201.456 -155.57
O 259.805 381.403 -44.5762
CA 126.025 -78.2899 51.5873
O 13.9487 35.6609 140.32
CA -182.191 38.1369 -196.63
O 136.338 13.5703 254.012
CA -127.524 197.867 52.7471
O -35.486 -126.722 -59.3438
CA -168.229 -136.815 150.659
O 9.09141 -159.298 -55.9171
CA 87.5439 107.028 201.519
O -46.1281 50.2552 -292.401
CA -149.756 -33.1254 208.518
O -173.966 37.5726 453.895
CA 40.5552 89.2968 99.1529
O -4.73542 40.2391 11.5904
CA -92.455 -143.428 121.268
O -2.30447 -123.544 81.3136
CA -13.9306 132.084 56.9328
O 13.7848 278.183 271.747
CA 94.6627 22.8582 208.876
O -176.677 -28.1862 171.374
CA 283.568 149.391 476.512
O 163.136 -16.0773 -162.654
CA 273.279 154.574 -208.333
O 148.603 -123.208 211.944
CA 270.512 71.9652 214.236
O 30.2425 -167.744 147.027
CA -16.7587 -266.945 -59.5347
O 133.456 -85.874 -88.2341
CA 277.395 -346.003 -230.606
O -17.4447 149.672 -46.9849
CA 6.22881 316.927 111.746
O -39.5374 -18.5158 -177.966
CA 215.343 -79.2824 -141.272
O 35.1305 190.45 145.771
CA -53.7693 141.299 67.4528
O 81.7888 -140.509 -182.424
CA -149.504 -99.1865 -245.146
O -99.0252 225.265 103.419
CA 146.62 59.1504 35.6519
O -19.7849 336.891 84.9517
CA 85.6653 3.52422 -68.5487
O -65.745 222.895 -187.173
CA 7.07731 110.415 65.3793
O 121.521 11.3301 -28.6174
CA 8.57834 -304.51 -178.764
O -27.6197 65.8805 170.688
CA 83.7858 -38.8927 -142.579
O -63.7009 278.47 -52.8056
CA -36.7788 61.4159 -161.334
O 79.3249 -256.458 -74.7794
CA 192.403 -108.81 -45.7063
O 68.3092 55.9116 47.4015
CA -170.235 -93.0477 -58.2683
O 64.3241 -25.394 -108.759
CA -215.752 113.319 -100.532
O -214.75 -96.4362 -4.35416
CA 186.972 -122.202 -133.564
O 181.556 -8.85908 -49.5138
CA -9.27744 176.235 45.5247
O 9.16812 36.3365 6.63082
CA 252.231 -199.84 99.2247
O 114.591 260.604 158.72
CA 143.046 154.928 446.884
O 42.0875 -15.9209 -126.774
CA -3.95896 -99.8712 -35.2382
O 78.5307 -178.68 30.9433
CA 55.8413 -53.5037 110.966
O 140.879 196.867 -133.601
CA 172.137 -38.5381 217.998
O 36.7239 17.0391 -61.383
CA -129.88 256.542 212.881
O 58.6913 27.5142 59.3806
CA -66.6878 501.877 -63.8777
O -100.898 83.9024 -33.5819
CA -9.24241 -237.242 -120.784
O -160.076 35.9807 74.2744
CA 186.035 -156.059 -43.5013
O 40.6523 -84.9534 21.4688
CA -19.7232 44.0134 173.66
O 154.548 -138.992 -97.3685
CA -179.848 213.591 -11.6154
O 259.612 14.9995 105.854
CA -41.4794 53.4116 -51.5091
O -156.624 387.227 -114.2
CA 332.9 -96.4521 -20.3347
O -90.8629 -14.7645 29.9196
CA -95.4208 -46.0937 41.7167
O 47.762 -34.1676 5.54394
CA 93.2207 214.546 -263.368
O 79.7901 -272.822 30.6302
CA 126.945 -85.2054 -52.604
O -99.3964 -279.161 330.754
CA 58.6468 57.9202 -120.013
O 237.783 135.653 -122.329
CA 114.179 -6.86463 2.55738
O -106.931 68.7545 -136.981
CA -89.1273 226.259 19.8247
O -38.6498 232.552 -27.5285
CA -12.142 -65.8511 40.5142
O -57.7163 -22.9887 -23.7367
CA 169.135 37.4012 -126.118
O 26.4157 174.617 116.964
CA 54.665 478.162 140.395
O 151.472 49.4883 144.307
CA 45.4692 278.019 -82.1207
O -125.868 -104.203 6.10138
CA 167.835 108.061 -260.934
O 58.5049 201.022 3.11137
CA 47.6591 101.366 369.587
O 116.627 -77.6712 -1.92026
CA -10.7488 -18.772 -52.7799
O 276.201 42.5911 110.623
CA 89.3818 135.461 96.4985
O 308.546 -253.83 8.71742
CA -223.869 6.19248 147.263
O -219.197 38.4391 -116.602
CA -258.097 291.975 110.38
O 134.271 188.727 -88.9281
CA -46.1067 29.9482 98.3085
O -232.225 -171.852 -5.38142
CA 149.883 -307.077 -327.712
O -194.543 89.2539 273.32
CA 325.694 53.0228 61.225
O 117.766 143.482 -93.4385
CA 76.5964 5.57329 121.783
O -188.991 -24.2052 -15.9882
CA -43.8868 83.37 -19.6454
O -10.4713 110.702 327.133
CA 135.112 -129.769 -248.93
O 123.049 -104.245 50.6283
CA -25.6849 -21.6875 -240.934
O -8.14031 119.871 296.642
CA 243.813 444.306 -6.89416
O 188.394 -50.5348 301.231
CA 9.19547 219.729 -192.108
O 18.9595 -174.181 -138.214
CA -61.5457 8.7046 152.477
O -79.6109 -102.76 -54.1833
CA -64.4589 9.32436 77.9048
O 49.3447 -127.485 -313.726
CA 172.866 193.719 -89.2439
O 216.735 14.6846 121.128
CA 31.3459 -138.651 -3.83878
O 66.2495 -327.227 -11.9732
CA -108.62 -78.5593 -155.692
O -46.1459 84.3435 23.6886
CA 86.8025 -285.045 -171.224
O -54.638 207.284 -115.736
CA 232.427 411.292 -240.134
O 19.28 6.78222 75.823
CA 71.3564 177.449 28.3333
O -78.9261 87.6567 163.901
CA 261.714 -96.7943 -91.3087
O 103.323 205.631 -56.7627
CA -3.42526 321.746 -383.932
O 143.919 127.772 209.266
CA 117.582 -316.746 322.416
O 44.3823 122.175 106.396
CA 234.609 -97.435 -238.892
O -140.001 395.952 410.603
CA 68.2297 -38.6906 -84.5854
O -56.4622 -137.681 -179.369
CA 150.501 267.387 -122.083
O 151.379 239.099 -156.382
CA -132.962 -17.9787 23.8107
O -253.473 193.288 -17.128
CA -57.6076 154.614 92.1851
O -111.144 -188.252 97.1783
CA 21.5682 113.279 201.854
O 54.6951 65.4796 153.935
CA 104.407 74.6729 359.468
O 174.513 1.93632 37.6162
CA 75.565 22.3392 -297.187
O 153.551 -123.024 -206.917
CA -54.997 -58.8185 94.6103
O 34.1013 -81.2969 216.087
CA 129.112 104.431 49.7711
O -67.6879 -73.802 182.783
CA -63.5318 145.395 156.949
O 113.328 -118.912 131.197
CA 211.534 -188.132 -11.2297
O 204.741 190.984 100.684
CA -74.6791 203.897 58.192
O 4.69608 125.291 184.069
CA -160.703 358.766 -56.1876
O 191.471 151.336 63.2588
CA 255.043 -303.318 -393.754
O 204.056 -2.01961 178.18
CA 62.7211 14.2703 -45.6818
O 214.325 139.935 -184.674
CA 50.0268 134.896 -56.5921
O 113.082 218.35 -74.8176
CA 209.771 54.1516 395.661
O 181.464 15.0752 25.3682
CA 456.774 81.208 8.52072
O 189.231 92.1394 53.6739
CA 59.8796 -65.4753 38.8473
O 260.207 205.215 228.724
CA 66.1297 -14.4078 -512.338
O -101.186 110.444 135.502
CA 225.35 83.549 40.2722
O 74.0046 71.9509 120.351
CA -9.36095 -133.91 -22.5875
O 107.565 -31.1992 -55.5302
CA -281.156 -33.3507 -198.068
O 232.558 -245.725 20.8024
CA 151.29 4.81647 179.131
O -118.051 115.849 179.424
CA 250.798 48.41 24.2675
O -7.69454 -55.0552 -22.3202
CA -274.247 62.9894 -266.342
O -11.8139 -76.5474 -41.1725
CA 202.32 180.318 24.1597
O -102.638 5.37777 39.5823
CA -137.779 -92.38 -77.6291
O -241.759 -241.357 101.726
CA 388.377 87.3675 44.5278
O 261.573 128.472 -148.115
CA 190.975 41.8093 101.199
O -82.2994 164.141 20.8136
CA -11.3537 -5.88372 -312.766
O -48.3655 -102.976 -113.792
CA 108.453 31.0344 172.181
O 56.3064 -65.7223 -159.042
CA -9.63609 187.185 219.95
O -85.1539 147.09 -20.7798
CA -123.92 164.253 144.095
O 27.9002 -15.1363 11.6333
CA -89.3161 -48.7645 39.5388
O 4.71932 35.0765 34.8566
CA -154.548 127.206 97.0181
O -177.585 -1.0882 57.0628
CA -81.756 -312.421 175.807
O 185.519 42.1535 -218.821
CA -400.299 -94.6189 355.253
O 210.016 106.033 -9.8727
CA 46.848 -120.741 -40.3838
O -85.1775 17.5965 22.1445
CA 112.176 128.34 19.5483
O 25.2459 131.971 154.621
CA 0.429281 90.3433 278.404
O -2.36575 75.827 -35.6193
CA 99.5539 97.7606 244.309
O 96.1108 46.5984 12.9976
CA 125.024 -293.767 -51.356
O -192.384 121.005 -1.52345
CA 199.483 137.767 -177.324
O -184.305 134.233 164.511
CA 446.279 257.271 -20.2705
O 276.684 18.3477 65.199
CA 34.467 245.726 110.04
O 199.656 -66.3612 112.859
CA 27.5719 267.706 57.5679
O -344.23 90.2653 55.576
CA -129.762 -113.077 85.7668
O 227.995 -27.3947 -148.081
CA 175.017 226.751 -92.6607
O -40.9928 -86.611 303.055
CA 45.8961 10.8025 52.4366
O 292.731 20.7373 204.922
CA -211.707 59.3355 340.428
O -33.9157 -20.4129 -75.7802
CA 89.0262 139.007 -94.5757
O -107.053 -16.6079 55.5352
CA -145.7 62.6028 4.05828
O 6.3596 125.512 -75.3933
CA 202.033 84.6688 52.1713
O -21.7653 44.2432 1.10338
CA 457.948 -92.32 90.8061
O 25.2646 5.96981 -252.539
CA 50.5142 28.2412 98.8164
O 396.45 83.7805 -94.485
CA 51.2711 -181.558 259.655
O 163.018 -198.412 68.9057
CA -81.7088 249.767 162.901
O 13.3874 151.052 60.4851
CA 92.7948 -168.777 268.85
O 91.533 69.0781 -103.041
CA -128.082 93.6199 252.972
O 206.611 237.942 -255.654
CA -63.5174 275.44 92.7243
O 290.745 105.037 65.5565
CA -197.012 98.314 122.592
O -118.524 70.7564 -128.723
CA 35.2371 -206.316 28.4546
O 176.787 169.775 64.8477
CA -15.2117 356.489 -25.8674
O -73.82 -267.722 84.7866
CA -71.3017 68.9549 -178.474
O -226.384 -141.84 269.491
CA 290.423 112.779 207.419
O -73.1935 172.912 139.747
CA 199.466 177.659 356.902
O 12.4116 55.4065 -19.5842
CA 460.153 -152.377 260.25
O -57.0861 126.562 -48.3504
CA 332.089 -57.1877 -25.1593
O 105.006 413.055 88.0682
CA -29.0297 60.1577 -171.756
O -50.8305 -216.452 145.335
CA -275.777 129.552 163.735
O -14.8606 281.627 120.615
CA -130.113 74.0959 -63.6239
O 28.1253 -204.756 115.917
CA -509.654 339.318 134.604
O 129.929 -20.9006 274.527
CA 310.06 66.0399 99.0595
O 57.0188 84.7722 3.6679
CA -343.148 135.656 41.2011
O -234.587 -131.33 82.7033
CA -47.3799 9.24286 89.2906
O -222.834 20.7553 67.3171
CA -271.474 -113.479 227.034
O 43.1278 167.242 -126.291
CA -13.563 -184.969 141.922
O 141.984 -28.9934 86.7204
CA -12.9335 -35.0252 193.949
O -242.689 -104.809 -124.353
CA -122.638 114.626 -185.136
O 11.5907 -127.507 229.662
CA 62.2839 240.315 -287.716
O 336.272 72.6799 163.739
CA 67.9803 -55.7568 -11.6327
O 89.1604 -166.657 280.168
CA -153.175 -50.3545 243.754
O 23.3647 -57.1402 -77.5054
CA -48.3821 -26.9422 120.966
O 193.063 480.965 338.402
CA 215.106 77.1935 -32.4696
O 3.26518 112.935 -64.0458
CA 125.107 -244.291 -275.06
O 159.027 315.916 -103.043
CA 149.269 26.2149 -168.837
O -151.721 -23.432 -210.538
CA 145.226 -206.035 -214.074
O -6.63862 273.187 -258.398
CA -209.607 8.27103 233.91
O 180.92 -27.4064 4.21475
CA 531.533 212.461 110.693
O 281.432 85.3031 -46.2449
CA 290.053 80.7554 -15.4452
O -43.3298 163.167 -144.949
CA -68.2901 -87.6901 -222.083
O -10.5763 198.657 -51.5691
CA -285.102 -77.6546 54.2557
O 12.028 119.443 -36.7361
CA 39.4883 172.849 73.3863
O 40.9064 82.2144 124.307
CA 30.6146 292.791 119.229
O -166.123 219.802 315.754
CA 91.863 209.309 307.847
O 184.399 -118.208 203.606
CA -185.633 314.421 17.5888
O -103.002 -81.2202 -74.1764
CA 21.265 126.279 26.747
O -157.107 129.069 15.273
CA -66.2493 -190.524 -210.71
O 154.113 -51.038 55.0269
CA -50.3146 24.4642 -88.8562
O -62.7592 197.796 126.318
CA 373.143 36.8978 142.74
O -73.3643 141.765 21.7892
CA 9.48574 27.5038 48.1029
O -97.1932 -220.091 -82.4987
CA 107.101 -0.959245 -22.8192
O -138.938 25.5402 179.593
CA -70.6087 -31.7096 45.0473
O 364.173 -49.075 -114.455
CA -148.182 8.80421 96.36
O 75.6536 143.823 59.8224
CA 224.989 199.703 177.854
O 47.0277 -2.05983 151.512
CA -356.042 -85.4023 125.358
O -33.5888 -265.106 -7.77772
CA -332.138 333.263 -55.2295
O 88.4211 60.5431 36.6692
CA -70.4821 -130.262 244.196
O -272.985 27.6307 -232.942
CA -63.2354 233.484 142.805
O 14.1784 -43.4478 39.1269
CA -213.781 80.9482 146.045
O 72.8781 25.3532 -159.305
CA -342.215 13.7183 9.8989
O -36.5746 16.3211 -0.221429
CA 35.3937 57.8881 -290.203
O -5.18712 173.884 -154.637
CA 148.199 -140.386 -31.7141
O 278.051 -31.8683 159.05
CA -36.4881 200.758 202.877
O 84.6658 7.76147 14.4025
CA 19.4524 -233.519 163.19
O -30.2217 -52.825 88.4935
CA -39.9109 -75.668 127.212
O 72.6215 -77.3104 253.539
CA -72.5015 424.959 -38.29
O 11.8187 104.448 169.949
CA -153.236 -80.5096 91.9264
O 105.278 -78.9184 -8.78175
CA -69.5907 82.1956 26.9656
O 173.471 -118.582 87.0548
CA -261.851 309.941 53.0538
O -63.0076 59.5917 170.122
CA 164.195 96.3747 124.561
O -31.2606 -109.792 77.7334
CA 90.395 2.16669 91.0596
O 15.2067 78.1806 17.4875
CA 149.611 -206.374 -3.51518
O -94.8512 11.9244 189.878
CA -96.9514 -214.834 43.3188
O -1.75032 288.39 79.2255
CA 134.537 181.257 106.26
O 207.539 139.934 -130.458
CA 202.886 212.204 4.9736
O -156.904 307.64 -129.162
CA -57.2129 245.407 -33.9697
O 176.89 283.916 171.419
CA -96.3351 44.6228 -0.463225
O -243.003 130.407 -154.412
CA 3.66656 -156.036 -0.502775
O 178.246 -27.1703 -94.3577
CA 40.0533 110.022 18.0495
O -38.2675 203.183 62.5615
CA -188.951 221.669 1.11863
O 136.578 -60.0533 80.7769
CA 112.559 -383.938 -162.812
O -48.9839 -109.895 123.666
CA -207.22 -158.406 -138.475
O -47.5841 -87.9644 24.2525
CA -7.49322 -18.0155 105.084
O 41.9209 -117.503 34.0597
CA 55.1767 -263.487 -187.341
O -140.984 178.645 35.9012
CA 146.028 -241.643 -90.8849
O 94.4676 103.366 125.852
CA 52.2948 59.2646 345.171
O -83.5029 -107.617 300.38
CA 3.52209 -154.575 -262.307
O -126.639 173.753 35.5904
CA -145.133 -198.413 -182.739
O -99.9185 -45.625 150.477
CA 89.2355 152.365 31.011
O 18.9956 51.1442 1.11335
CA 59.2848 -115.9 39.6049
O -3.74536 -170.696 30.4281
CA 109.917 -161.638 -294.1
O 208.892 -26.5305 -126.72
CA -162.017 339.958 456.642
O 90.6434 359.887 9.8933
CA -35.303 7.48335 -198.089
O -160.838 -107.625 136.885
CA 141.05 200.229 -272.752
O 57.2187 137.261 37.6997
CA -462.418 16.2247 -83.8913
O -24.6309 302.894 -149.136
CA 147.269 -269.764 248.106
O 40.7135 219.327 -67.2986
CA -383.369 98.4597 -27.0275
O -184.484 -123.683 141.912
CA 58.3499 13.9284 -97.4738
O 54.1765 190.79 168.154
CA -176.556 -104.931 -48.981
O 71.4537 148.605 -183.329
CA -310.004 120.995 -297.619
O 179.086 -166.261 -26.5231
CA -3.29213 -166.229 -9.42031
O 165.412 -78.1158 -190.879
CA 215.343 48.1281 -84.9885
O 188.07 -311.654 89.6291
CA 141.539 39.0121 147.073
O -85.0914 147 131.36
CA -159.913 93.0538 324.23
O 26.8598 163.053 6.92438
CA 365.698 -90.895 -111.998
O 133.352 290.532 -85.8003
CA -112.53 118.829 15.4933
O -70.0948 -48.5889 -152.115
CA 72.6509 59.4122 112.523
O -84.5396 -58.8125 -6.84605
CA 257.051 34.2203 -14.2529
O -39.5965 2.67239 92.4219
CA -50.0168 90.5367 175.337
O 61.3424 18.212 107.033
CA 59.5742 55.9403 175.264
O 132.388 75.8137 75.724
CA -130.599 -56.8511 259.186
O 74.1495 -167.383 233.448
CA 33.3727 -178.702 24.8817
O 127.599 66.4486 227.768
CA -156.939 -147.81 278.63
O 207.986 -230.931 107.355
CA 185.383 37.7957 -62.8706
O -132.659 79.9313 88.2076
CA -82.209 259.146 -14.0849
O 101.152 -123.461 -51.793
CA 112.828 -4.21274 -120.173
O -18.4527 112.421 225.548
CA -234.841 200.87 291.873
O -3.15144 -94.6021 -75.4082
CA -244.731 -68.2832 -140.298
O 133.715 -341.965 123.608
CA 5.26191 -23.3022 -234.531
O 66.8005 125.769 -60.7942
CA -336.656 -269.467 22.3737
O 87.8697 -168.452 57.8987
CA -45.0234 -137.006 -40.2338
O 58.3886 187.486 -195.545
CA 91.3755 379.85 -208.418
O 74.42 169.325 160.585
CA 155.617 -144.983 -192.674
O -161.963 259.267 -32.5928
CA 118.552 257.803 -11.9993
O -42.1341 -5.7621 -271.273
CA 277.502 -298.761 69.8406
O 246.469 -151.366 -289.177
CA 142.596 35.1348 -190.682
O 240.498 45.193 -148.859
CA 298.917 -244.858 205.887
O 2.76212 253.425 388.846
CA -120.72 134.804 104.59
O 34.9803 20.1143 405.36
CA -68.1838 170.024 263.789
O -93.3659 -204.676 141.078
CA 304.205 291.676 35.72
O 82.5769 259.136 115.104
CA -70.5504 -39.1566 69.7524
O -47.2993 58.2553 238.123
CA 169.546 -128.803 120.51
O -32.9179 369.031 53.3905
CA -174.847 -76.3372 113.661
O -93.69 54.4405 125.058
CA 153.64 142.549 -1.87473
O 68.0955 -80.8268 -53.5785
CA 231.858 67.8064 106.009
O 102.864 -122.872 44.5255
CA -28.7368 -54.8646 54.9009
O 69.0059 307.603 203.342
CA 227.905 209.086 207.364
O 174.638 -31.9936 115.893
CA 65.5382 13.519 -27.8377
O 77.5844 168.653 82.0515
CA 58.8673 -54.6134 84.8199
O 19.2431 159.59 36.1525
CA -299.017 -268.601 106.024
O -168.457 -277.49 27.3754
CA 260.519 -198.376 -202.211
O -22.1376 55.8597 225.194
CA -43.0731 -94.2074 153.522
O -47.6346 -5.33581 174.387
CA -73.9603 -63.5244 -65.347
O 137.006 334.66 38.3069
CA -133.897 -30.2297 63.981
O -38.6638 16.1433 -71.4741
CA 102.018 71.6635 75.7825
O -124.839 118.271 -82.4978
CA -3.18876 123.323 -31.711
O 155.475 -82.3943 154.396
CA 181.466 402.356 -19.2319
O 22.2242 55.2235 245.539
CA -7.95647 -83.5994 -128.586
O -159.82 87.5758 230.105
CA 84.0592 14.1429 -28.5055
O 34.0342 -92.5119 221.167
CA 68.981 5.82571 -210.001
O 114.543 -87.2947 199.826
CA 149.663 -239.856 136.184
O 63.1501 -255.653 -89.4496
CA 69.5629 -397.101 -219.026
O -51.722 293.524 -48.6641
CA 288.089 104.258 -264.942
O 53.1505 98.4438 203.432
CA -206.888 -200.737 164.593
O 79.3156 185.873 -180.591
CA -55.83 150.082 -44.059
O 68.964 103.982 70.756
CA -21.4382 -201.539 255.403
O 103.717 -70.1049 -116.044
CA -145.918 76.0402 15.8819
O 37.952 -120.817 116.896
CA 263.863 24.2188 -112.884
O 28.8986 189.088 131.867
CA -538.408 -134.249 -36.3041
O 442.545 -318.212 -12.6251
CA 189.308 212.366 129.407
O 93.4429 200.743 133.75
CA 192.045 153.653 -12.381
O 25.9149 5.51016 207.106
CA -63.5253 70.4609 -135.855
O 114.447 100.98 -6.71985
CA 76.0722 148.709 2.5029
O -55.6901 -9.04986 71.5496
CA 9.89656 -25.489 228.823
O 99.8521 -293.332 155.792
CA 119.731 -36.1658 386.39
O -159.876 136.089 -47.3925
CA 445.496 415.411 -222.178
O 139.429 86.0793 238.927
CA -80.5948 33.0749 4.81875
O -129.527 -11.6442 59.6027
CA 45.0379 258.91 -134.979
O 134.771 335.552 -47.7383
CA 106.986 -203.47 -40.4371
O 207.83 180.275 -120.437
CA -72.616 -92.1959 -241.566
O -126.508 65.3529 -18.2891
CA 41.2133 -322.101 154.857
O 283.755 -142.149 -172.31
CA -226.473 85.9333 -191.662
O -93.0603 -95.6598 212.384
CA -248.251 -64.3345 17.6978
O 67.9821 -112.902 -144.818
CA 122.123 -146.205 45.3421
O 13.7155 -106.609 199.774
CA 74.3747 158.824 10.3027
O 193.575 44.7374 -170.235
CA 258.326 -336.344 -127.942
O -73.2388 391.262 -182.828
CA 177.385 361.29 -85.4493
O -24.7441 167.057 204.103
CA 60.4971 182.513 -37.1157
O 208.365 -107.507 -39.0619
CA 311.883 262.965 157.82
O 74.7527 -356.241 138.941
CA 121.243 103.196 -407.362
O 130.745 -319.601 19.5997
CA -38.2716 70.9665 -266.158
O 154.284 -10.4642 -29.7496
CA 164.533 -228.457 187.517
O -39.5107 -7.43706 137.315
CA -108.225 112.668 -0.73771
O -86.0161 -252.853 -251.735
CA -261.962 41.349 5.06793
O 26.28 -179.009 -118.621
CA 231.971 -209.082 -141.364
O 92.3445 245.62 78.7888
CA -115.358 -132.535 357.7
O -138.817 36.7074 7.70753
CA 299.439 -1.87696 161.278
O -31.7801 -95.2227 69.4027
CA 75.2401 216.607 243.535
O 164.716 -12.9931 208.986
CA 152.02 13.396 68.0723
O -195.843 -134.697 62.4687
CA 132.616 -295.605 -11.5104
O 75.8647 -85.9085 -142.61
CA 247.86 72.1912 5.19164
O 71.8747 -75.0383 -71.9519
CA 177.583 184.641 96.4881
O -151.661 -40.0034 13.9424
CA 11.4329 -53.8199 406.388
O -164.907 59.4874 143.16
CA 27.5802 -9.08322 63.5982
O 128.044 -63.9803 133.324
CA -325.237 148.355 118.839
O -13.9629 178.957 88.5555
CA -59.3469 67.0122 359.426
O 103.44 164.595 115.97
CA 309.512 99.68 65.8409
O 32.9099 31.9253 369.051
CA -102.249 -23.2085 469.625
O 59.0767 77.7624 144.544
CA 28.9068 57.1543 -200.869
O 79.6652 142.885 -83.8228
CA 138.278 525.802 -35.9808
O -109.4 225.611 159.053
CA -155.763 -234.706 -335.49
O 91.2674 106.426 323.495
CA 238.882 -53.1974 196.173
O -47.5106 -118.928 -233.683
CA -91.6935 246.262 -143.672
O -35.1728 -156.907 151.53
CA 154.635 -219.028 213.618
O 225.538 132.45 -19.327
CA -40.8087 124.563 81.9122
O -195.805 -46.0871 -154.114
CA 254.16 -39.4234 -149.236
O -169.705 51.3502 -91.6586
CA -37.7652 69.6782 246.283
O 91.0391 -48.5393 186.407
CA -48.7109 67.7181 -15.327
O -94.3302 171.157 182.439
CA -104.819 -66.2046 77.1111
O -121.922 155.816 129.191
CA 138.563 -53.0108 78.4115
O 198.855 30.7428 -15.9392
CA 94.9771 -6.81921 -311.526
O 75.0386 -207.781 13.9325
CA -69.6333 20.7374 -97.968
O 52.6031 -116.263 118.016
CA -317.694 365.755 94.0057
O 240.525 193.656 -53.0568
CA -51.2534 -84.7748 -19.5879
O 37.9239 3.51871 117.943
CA -310.344 80.97 358.806
O 43.5874 -152.87 -100.557
CA -159.117 259.858 159.791
O -91.7962 -182.205 -65.167
CA 84.2684 -194.372 63.0698
O 57.111 38.3627 13.5993
CA 165.497 116.664 76.9091
O 86.4786 262.855 -79.9468
CA 221.129 139.5 -251.744
O 290.881 -131.994 195.78
CA -291.103 -448.408 -193.248
O -40.1699 -235.896 144.132
CA 143.849 67.1559 181.565
O 184.82 -97.1951 -92.3514
CA 320.577 303.213 -42.4916
O 186.611 -115.227 110.171
CA -73.6708 -256.168 46.6338
O 185.06 -62.226 107.148
CA 174.377 -101.884 -141.834
O 9.23555 96.0022 16.5443
CA -42.1514 -152.449 119.629
O -156.903 -56.1743 -147.167
CA -59.7748 255.194 -180.153
O 90.8936 -123.387 97.6099
CA 57.3246 -372.18 -51.3384
O -49.3313 -189.632 96.0547
CA 13.63 -20.1217 28.9054
O -172.327 153.643 233.648
CA -201.135 108.11 159.707
O 61.4238 163.65 61.5951
CA 203.965 158.887 62.8372
O 126.135 149.102 -9.50063
CA 31.0076 244.859 -324.441
O 81.3224 244.53 296.082
CA -235.313 343.507 -178.485
O 262.256 20.0644 -173.384
CA 115.887 -186.166 90.3496
O -63.8029 113.648 -287.187
CA -36.4563 277.72 106.491
O -46.2766 142.049 -58.2129
CA -95.6795 193.213 113.541
O 50.1171 -4.91891 163.422
CA -10.4922 163.932 103.382
O -5.10341 -135.967 -37.2567
CA -98.1837 -287.099 -187.704
O 34.9042 -313.354 44.5575
CA 323.38 209.612 215.225
O 3.34523 31.8139 -70.8167
CA 446.099 248.711 -165.517
O 294.328 -122.215 390.66
CA -35.987 -201.965 -257.916
O -27.8577 -24.0166 -141.829
CA -87.4493 54.3034 43.5484
O 302.054 -25.5668 265.48
CA -101.212 128.941 -138.875
O -141.608 124.279 -42.0669
CA 102.266 -467.256 -67.9781
O 134.099 219.992 175.884
CA -277.905 256.148 -199.691
O 181.927 -59.4495 2.43477
CA -28.4726 -240.718 193.245
O -281.44 -27.4278 -169.998
CA -25.2193 300.355 79.7972
O -47.9912 -28.3357 -164.781
CA 154.823 92.3216 81.8995
O -340.951 -61.3204 47.1767
CA 180.694 -8.19412 -24.1565
O -226.172 -19.2782 -35.037
CA 170.642 49.9952 187.818
O -107.658 79.7936 -15.4256
CA 231.494 -75.1438 -180.572
O 97.3115 -0.768545 187.62
CA 93.9272 167.542 164.054