ITEM: TIMESTEP
130000
ITEM: NUMBER OF ATOMS
286
ITEM: BOX BOUNDS xy xz yz pp pp pp
-7.6875842777000001e+00 2.0029380798300000e+01 0.0000000000000000e+00
0.0000000000000000e+00 1.1596211433400001e+01 -7.6875842777000001e+00
0.0000000000000000e+00 1.9680415410399998e+01 0.0000000000000000e+00
ITEM: ATOMS id type xs ys zs ix iy iz
159 3 0.155331 0.355206 0.20204 0 0 0
35 2 0.304846 0.159524 0.100999 0 0 0
59 2 0.147667 0.314202 0.0951895 0 0 0
220 3 0.164945 0.0627327 0.180774 0 0 0
213 3 0.0289289 0.18812 0.192487 0 0 0
210 3 0.0798933 0.149706 0.063135 0 1 1
226 3 0.250534 0.241196 0.159457 0 1 0
238 3 0.220454 0.262026 0.0173511 0 0 0
69 2 0.307253 0.498316 0.0925113 0 0 0
144 3 0.222464 0.493454 0.134707 0 0 0
258 3 0.226759 0.0084592 0.0766809 0 0 1
233 3 0.0418328 0.472412 0.182224 0 -1 0
49 2 0.238409 0.496175 0.238804 0 0 0
26 2 0.0942416 0.316374 0.2712 0 0 0
241 3 0.163873 0.1858 0.32085 0 0 0
78 2 0.202888 0.165663 0.433439 0 0 0
91 2 0.00799084 0.323894 0.412851 0 0 0
268 3 0.227633 0.384483 0.44255 0 0 0
149 3 0.102749 0.194643 0.475713 0 0 0
43 2 0.246206 0.195432 0.257232 0 0 0
254 3 0.314226 0.143463 0.404105 0 0 0
172 3 0.301886 0.352054 0.287735 0 0 0
132 3 0.0141653 0.0114646 0.299779 1 0 0
269 3 0.0951828 0.437397 0.394639 0 0 0
105 2 0.0890801 0.0237464 0.25223 0 0 0
175 3 0.168942 0.450731 0.308137 0 0 0
14 1 0.172915 0.479939 0.392465 0 0 0
128 3 0.157293 0.000926881 0.410108 0 1 0
279 3 0.18829 0.14468 0.718547 1 1 0
169 3 0.25015 0.107574 0.557654 0 1 0
73 2 0.283418 0.338457 0.561765 0 0 0
112 3 0.15348 0.38617 0.656034 1 0 0
110 3 0.0656695 0.464091 0.534014 0 0 -1
84 2 0.154708 0.159085 0.611706 0 0 0
5 1 0.138161 0.49627 0.602674 0 0 0
188 3 0.0538593 0.179807 0.627508 1 0 0
185 3 0.016794 0.353139 0.707036 1 0 0
160 3 0.313428 0.320843 0.670791 0 1 0
17 2 0.0901581 0.49585 0.73781 0 0 0
189 3 0.107923 0.00302929 0.57616 0 0 0
7 1 0.0356034 0.499149 0.899925 0 0 0
32 2 0.212161 0.321224 0.909729 0 0 0
243 3 0.188256 0.360622 0.797438 0 0 0
40 2 0.273027 0.325208 0.766255 0 0 0
100 2 0.0297332 0.185873 0.910988 0 0 0
256 3 0.11803 0.236693 0.887864 1 0 -1
230 3 0.262883 0.153409 0.883134 0 0 0
61 2 0.0801153 0.151421 0.752541 0 0 0
52 2 0.261833 0.00140751 0.776075 0 1 0
201 3 0.304306 0.498838 0.772626 0 0 0
42 2 0.235384 0.818802 0.229599 0 0 0
199 3 0.25001 0.657936 0.0650558 0 0 0
34 2 0.316933 0.822638 0.0777879 0 0 0
187 3 0.162455 0.675562 0.186765 0 0 0
58 2 0.151869 0.644857 0.0812802 0 0 0
221 3 0.180485 0.830936 0.113903 0 0 0
244 3 0.0418745 0.842271 0.220201 0 -1 0
138 3 0.0721229 0.941459 0.0530289 0 0 0
4 1 0.15701 0.983263 0.0991557 0 0 0
184 3 0.0220257 0.629937 0.0807207 0 0 0
260 3 0.323506 0.809329 0.190771 0 0 0
27 2 0.095518 0.665186 0.2709 0 0 0
90 2 0.0218793 0.65793 0.422223 0 0 0
79 2 0.217433 0.827617 0.430166 0 0 0
274 3 0.320236 0.6621 0.277357 0 0 0
242 3 0.165129 0.803432 0.314876 0 -1 0
45 2 0.0500662 0.991458 0.449361 0 0 0
263 3 0.114693 0.794642 0.442388 0 -1 0
232 3 0.201803 0.625187 0.411864 0 0 0
194 3 0.00337588 0.651948 0.318384 1 0 0
209 3 0.166287 0.838448 0.710926 0 -1 -1
179 3 0.028783 0.812893 0.641301 0 0 0
81 2 0.120113 0.796818 0.598425 0 0 0
116 3 0.28648 0.97149 0.674109 0 -1 0
271 3 0.287515 0.850567 0.548346 0 0 0
227 3 0.100618 0.615439 0.633659 0 0 0
76 2 0.313235 0.664459 0.575902 0 0 0
133 3 0.202954 0.523931 0.573434 0 0 0
131 3 0.0105365 0.996833 0.715527 1 -1 0
37 2 0.255124 0.686328 0.747531 0 0 0
11 1 0.294644 0.980269 0.595014 0 -1 0
245 3 0.0241028 0.795309 0.502408 0 0 0
29 2 0.196921 0.639402 0.923614 0 0 0
196 3 0.273786 0.521635 0.925182 0 0 0
120 3 0.136722 0.825174 0.925996 0 0 0
207 3 0.33086 0.789457 0.818291 0 -1 0
141 3 0.288854 0.765909 0.951905 0 -1 0
97 2 0.0359509 0.844393 0.93145 0 0 0
64 2 0.0862688 0.821524 0.759761 0 0 0
235 3 0.169515 0.672498 0.809757 0 0 0
165 3 0.0991031 0.541289 0.980637 1 0 0
145 3 0.157282 0.978461 0.810619 0 0 0
250 3 0.310307 0.965528 0.917249 0 -1 -1
72 2 0.211542 0.989737 0.929961 0 0 0
211 3 0.046463 0.999466 0.891551 1 0 0
167 3 0.0630804 0.51083 0.829708 0 0 -1
122 3 0.363146 0.319299 0.121845 0 0 0
103 2 0.470805 0.344435 0.0808936 0 0 0
54 2 0.633507 0.144981 0.077416 0 0 0
180 3 0.551289 0.310146 0.207602 0 0 0
205 3 0.459889 0.122821 0.0957617 0 0 0
249 3 0.646952 0.135417 0.185659 0 0 1
248 3 0.587556 0.343836 0.0576052 -1 0 0
217 3 0.515457 0.499504 0.144484 0 0 0
2 1 0.631666 0.479172 0.084236 0 0 0
176 3 0.348121 0.133361 0.228139 0 1 0
223 3 0.662454 0.479011 0.17347 0 0 1
94 2 0.540364 0.203834 0.430837 0 0 0
23 2 0.60857 0.153627 0.270058 0 0 0
173 3 0.45541 0.334721 0.369675 0 0 0
282 3 0.603201 0.367784 0.450727 0 1 0
87 2 0.366304 0.344081 0.413873 0 0 0
234 3 0.475239 0.302053 0.489328 0 1 0
114 3 0.513084 0.158267 0.309042 0 0 0
6 1 0.369121 0.0239891 0.424013 0 0 0
66 2 0.433799 0.341252 0.25162 0 0 0
107 2 0.598443 0.490763 0.253195 0 0 0
191 3 0.452176 0.0671543 0.420335 0 0 0
20 2 0.431598 0.0284884 0.278021 0 0 0
130 3 0.523231 0.484794 0.293433 0 0 0
16 1 0.603828 0.00581187 0.592571 0 0 0
252 3 0.374147 0.225432 0.564622 1 0 0
168 3 0.531615 0.350227 0.613368 0 0 0
96 2 0.473392 0.19238 0.571933 0 0 0
246 3 0.497849 0.204339 0.694239 0 0 0
21 2 0.412307 0.142379 0.73046 0 0 0
85 2 0.634203 0.366734 0.592368 0 0 0
214 3 0.60391 0.143521 0.567494 0 0 0
68 2 0.571163 0.344299 0.74668 0 0 0
283 3 0.361349 0.479291 0.586879 1 0 0
195 3 0.544206 0.00970881 0.64026 0 0 0
125 3 0.393815 0.00635925 0.643152 0 0 0
153 3 0.472837 0.323262 0.799204 0 1 0
156 3 0.611566 0.327597 0.883058 0 0 0
56 2 0.377233 0.13083 0.933979 0 0 0
101 2 0.515851 0.345962 0.906551 0 0 0
266 3 0.367957 0.358191 0.935819 0 0 0
222 3 0.36894 0.14454 0.829827 0 0 0
1 1 0.36089 0.498268 0.94747 0 0 0
231 3 0.525885 0.118718 0.960232 0 0 0
215 3 0.49871 0.00401105 0.830355 0 0 0
19 2 0.574909 0.0244183 0.761264 0 0 0
236 3 0.568911 0.583477 0.039892 0 0 0
212 3 0.560995 0.929456 0.14114 0 -1 0
261 3 0.532982 0.680598 0.212323 0 -1 0
102 2 0.492983 0.668211 0.101013 0 0 0
55 2 0.661618 0.821789 0.105329 0 0 0
123 3 0.384506 0.679715 0.113623 0 0 0
265 3 0.426258 0.869014 0.046503 0 -1 0
148 3 0.358628 0.512396 0.206372 0 0 0
193 3 0.427062 0.989143 0.175117 0 -1 1
67 2 0.413186 0.672163 0.245545 0 0 0
10 1 0.463806 0.973349 0.112151 0 0 0
22 2 0.587024 0.849963 0.244588 0 0 0
203 3 0.396154 0.509867 0.0309408 0 0 1
47 2 0.525098 0.500575 0.404751 0 0 0
272 3 0.492712 0.853322 0.287864 0 0 0
86 2 0.349546 0.673442 0.389811 0 0 0
126 3 0.640384 0.532697 0.377668 0 0 0
95 2 0.523393 0.853436 0.409577 0 0 0
115 3 0.619185 0.74061 0.459246 0 0 0
152 3 0.405269 0.508999 0.421694 0 0 0
239 3 0.44979 0.722237 0.39334 0 0 0
208 3 0.658275 0.731506 0.309639 0 0 0
276 3 0.622372 0.97882 0.397209 0 -1 0
166 3 0.335705 0.944578 0.359523 0 -1 0
177 3 0.340181 0.667248 0.698251 0 0 0
219 3 0.412655 0.727432 0.644687 0 0 0
206 3 0.399185 0.716301 0.521642 0 0 0
275 3 0.552629 0.698505 0.62441 0 -1 0
93 2 0.464272 0.858201 0.589106 0 0 0
48 2 0.475445 0.540492 0.587617 0 0 0
157 3 0.529317 0.84704 0.708599 0 -1 0
88 2 0.634276 0.688743 0.580128 0 0 0
186 3 0.540576 0.928017 0.523839 -1 0 -1
129 3 0.527069 0.529052 0.707448 0 0 0
24 2 0.426817 0.821876 0.740319 0 0 0
65 2 0.60462 0.695904 0.733255 0 0 0
151 3 0.551138 0.574406 0.518605 0 0 0
108 2 0.413667 0.515417 0.727339 0 0 0
140 3 0.660982 0.539098 0.646671 0 0 0
154 3 0.387778 0.972978 0.504239 0 -1 0
9 1 0.536573 0.992613 0.927445 0 -1 0
197 3 0.627385 0.70837 0.888029 0 0 0
53 2 0.388299 0.796008 0.933308 0 0 0
104 2 0.524757 0.668636 0.901726 0 0 0
262 3 0.475533 0.658798 0.782526 0 0 0
228 3 0.498316 0.904141 0.963027 0 -1 -1
170 3 0.564969 0.511005 0.890719 0 0 -1
113 3 0.418982 0.581251 0.907305 0 0 0
121 3 0.620745 0.943912 0.949284 0 0 0
147 3 0.655232 0.538557 0.793771 0 0 0
30 2 0.78195 0.316214 0.0636124 0 0 0
135 3 0.836913 0.404973 0.201522 0 0 0
198 3 0.995068 0.410363 0.0304829 -1 -1 0
98 2 0.987406 0.158253 0.078751 0 0 0
192 3 0.724378 0.268327 0.125069 0 1 1
38 2 0.754109 0.327775 0.235927 0 0 0
253 3 0.861831 0.192101 0.104876 0 0 1
71 2 0.827481 0.00442658 0.0839131 0 1 0
163 3 0.718437 0.156538 0.0202157 0 0 0
158 3 0.904587 0.496477 0.087499 -1 0 0
75 2 0.702584 0.382987 0.42013 0 0 0
224 3 0.921148 0.434403 0.458479 0 0 0
82 2 0.837788 0.151113 0.401768 0 0 0
278 3 0.971202 0.322638 0.297678 -1 0 0
264 3 0.820679 0.17529 0.263288 0 1 0
63 2 0.926443 0.167867 0.257277 0 0 0
280 3 0.945904 0.157577 0.38405 0 1 0
164 3 0.831207 0.485271 0.316156 -1 0 0
190 3 0.746487 0.136453 0.479282 0 1 0
12 1 0.696117 0.00798225 0.46739 0 1 0
285 3 0.682048 0.292151 0.314397 0 0 0
267 3 0.889732 0.0174661 0.482978 0 1 0
218 3 0.789562 0.0175042 0.356256 0 0 1
89 2 0.967435 0.348554 0.583412 0 0 0
251 3 0.824182 0.494075 0.691264 -1 0 0
270 3 0.757259 0.38403 0.56604 0 0 0
80 2 0.807246 0.159606 0.598269 0 0 0
139 3 0.888938 0.221976 0.550813 0 0 0
240 3 0.861842 0.227084 0.701345 -1 0 0
13 1 0.810845 0.498851 0.608907 0 0 0
162 3 0.889834 0.463611 0.60079 0 0 0
46 2 0.969213 0.00544168 0.588068 0 0 0
284 3 0.707076 0.352275 0.693785 0 0 0
127 3 0.876444 0.000183507 0.621805 0 0 0
259 3 0.771838 0.277887 0.949294 0 0 0
161 3 0.994973 0.371271 0.894078 -1 0 0
106 2 0.923318 0.00122165 0.758277 0 0 0
57 2 0.865637 0.328669 0.921458 0 0 0
178 3 0.935261 0.092147 0.957499 0 0 -1
119 3 0.835252 0.305566 0.816139 0 0 -1
28 2 0.92668 0.361885 0.751557 0 0 0
33 2 0.676234 0.173655 0.906938 0 0 0
41 2 0.758394 0.19025 0.752792 0 0 0
277 3 0.98642 0.184135 0.803337 0 0 0
225 3 0.789636 0.0107401 0.959339 0 0 0
247 3 0.841483 0.020569 0.846848 0 1 0
3 1 0.863272 0.00203692 0.934759 0 1 0
281 3 0.670017 0.169756 0.792283 0 0 0
51 2 0.753299 0.997099 0.221923 0 0 0
31 2 0.803815 0.671899 0.0978058 0 0 0
118 3 0.888761 0.786091 0.107924 0 0 0
202 3 0.720117 0.785766 0.0353178 0 0 0
155 3 0.683991 0.782069 0.21954 0 0 0
182 3 0.774296 0.799087 0.165772 0 0 0
99 2 0.99278 0.840131 0.0994287 0 0 0
109 3 0.867881 0.67375 0.217482 0 0 0
142 3 0.703175 0.993902 0.115591 0 -1 0
216 3 0.687829 0.513235 0.0356223 0 0 0
18 2 0.918983 0.514618 0.228013 0 0 0
146 3 0.857776 0.987917 0.203334 0 0 0
237 3 0.940513 0.994953 0.0950075 0 0 1
8 1 0.988762 0.500598 0.0928983 0 0 0
255 3 0.836826 0.841882 0.310909 -1 0 0
134 3 0.746845 0.8834 0.469666 0 0 0
136 3 0.899166 0.654933 0.422913 -1 0 0
83 2 0.850191 0.867002 0.42259 0 0 0
74 2 0.697416 0.703636 0.413604 0 0 0
150 3 0.784739 0.530686 0.428647 0 -1 0
62 2 0.931082 0.8632 0.266758 0 0 0
174 3 0.943384 0.907941 0.378299 0 0 0
15 1 0.858539 0.525258 0.405881 0 0 0
39 2 0.779345 0.685038 0.255731 0 0 0
183 3 0.875056 0.79272 0.556349 0 0 0
77 2 0.798253 0.834047 0.600381 0 0 0
137 3 0.699177 0.715587 0.707342 0 -1 0
143 3 0.781125 0.632022 0.585772 0 0 0
273 3 0.83057 0.820601 0.707831 0 0 0
92 2 0.959968 0.659027 0.596015 0 0 0
286 3 0.671469 0.965196 0.669332 0 -1 0
181 3 0.967397 0.60647 0.696622 -1 -1 0
50 2 0.746241 0.529303 0.74483 0 0 0
171 3 0.684498 0.969907 0.54513 0 0 0
117 3 0.984297 0.82743 0.805746 -1 0 0
36 2 0.70322 0.852419 0.936035 0 0 0
204 3 0.798019 0.690522 0.978932 0 -1 0
60 2 0.874302 0.671051 0.938224 0 0 0
229 3 0.899346 0.863864 0.960001 0 -1 -1
124 3 0.832414 0.715388 0.823224 0 0 0
111 3 0.972232 0.606718 0.87436 -1 0 0
200 3 0.671164 0.902935 0.803174 0 -1 0
25 2 0.924704 0.676517 0.772712 0 0 0
44 2 0.756824 0.872059 0.765035 0 0 0
70 2 0.682894 0.521972 0.904922 0 0 0
257 3 0.833937 0.500205 0.891614 0 0 -1
ITEM: TIMESTEP
130001
ITEM: NUMBER OF ATOMS
286
ITEM: BOX BOUNDS xy xz yz pp pp pp
-7.6875842777000001e+00 2.0029380798300000e+01 0.0000000000000000e+00
0.0000000000000000e+00 1.1596211433400001e+01 -7.6875842777000001e+00
0.0000000000000000e+00 1.9680415410399998e+01 0.0000000000000000e+00
ITEM: ATOMS id type xs ys zs ix iy iz
159 3 0.155269 0.355003 0.201003 0 0 0
35 2 0.304518 0.159935 0.100802 0 0 0
59 2 0.147649 0.31391 0.0951733 0 0 0
220 3 0.163801 0.0607541 0.180093 0 0 0
213 3 0.0292493 0.188654 0.191492 0 0 0
210 3 0.0794026 0.151923 0.0623437 0 1 1
226 3 0.251068 0.241486 0.159626 0 1 0
238 3 0.219822 0.261415 0.0179742 0 0 0
69 2 0.306925 0.498436 0.0922123 0 0 0
144 3 0.222223 0.494991 0.134471 0 0 0
258 3 0.227877 0.00868149 0.0771577 0 0 1
233 3 0.0425632 0.473906 0.182854 0 -1 0
49 2 0.238062 0.49579 0.23883 0 0 0
26 2 0.094255 0.316279 0.271358 0 0 0
241 3 0.163718 0.186458 0.321184 0 0 0
78 2 0.202845 0.165789 0.433313 0 0 0
91 2 0.0077529 0.324538 0.412722 0 0 0
268 3 0.22916 0.386031 0.442776 0 0 0
149 3 0.102475 0.193803 0.476486 0 0 0
43 2 0.245769 0.195745 0.257083 0 0 0
254 3 0.315051 0.141645 0.404922 0 0 0
172 3 0.301699 0.350212 0.287178 0 0 0
132 3 0.0146142 0.0119439 0.29879 1 0 0
269 3 0.0946391 0.437316 0.395057 0 0 0
105 2 0.0886801 0.0243965 0.252127 0 0 0
175 3 0.167914 0.449445 0.308733 0 0 0
14 1 0.174026 0.479094 0.392017 0 0 0
128 3 0.157078 0.00175315 0.410557 0 1 0
279 3 0.188477 0.142725 0.716949 1 1 0
169 3 0.251483 0.107974 0.558363 0 1 0
73 2 0.282964 0.338339 0.56183 0 0 0
112 3 0.153246 0.386561 0.656892 1 0 0
110 3 0.0673747 0.464042 0.536032 0 0 -1
84 2 0.154849 0.159615 0.611834 0 0 0
5 1 0.13806 0.496797 0.601971 0 0 0
188 3 0.054127 0.178358 0.627529 1 0 0
185 3 0.0163026 0.351131 0.707036 1 0 0
160 3 0.312841 0.321017 0.671078 0 1 0
17 2 0.0901167 0.495441 0.737617 0 0 0
189 3 0.10898 0.00371242 0.577535 0 0 0
7 1 0.0357184 0.500136 0.900485 0 0 0
32 2 0.212516 0.320956 0.909677 0 0 0
243 3 0.187876 0.360301 0.797826 0 0 0
40 2 0.273295 0.325133 0.76644 0 0 0
100 2 0.0302338 0.185849 0.910754 0 0 0
256 3 0.120138 0.23688 0.887794 1 0 -1
230 3 0.262964 0.154024 0.882823 0 0 0
61 2 0.079763 0.151364 0.752617 0 0 0
52 2 0.261733 0.00153237 0.776155 0 1 0
201 3 0.305292 0.498086 0.77307 0 0 0
42 2 0.235745 0.818135 0.229809 0 0 0
199 3 0.249714 0.657383 0.0642528 0 0 0
34 2 0.316845 0.823283 0.0775672 0 0 0
187 3 0.163244 0.675066 0.185951 0 0 0
58 2 0.152133 0.644744 0.081513 0 0 0
221 3 0.181902 0.832803 0.114734 0 0 0
244 3 0.0413633 0.84217 0.219621 0 -1 0
138 3 0.0731888 0.939469 0.0535353 0 0 0
4 1 0.15739 0.982672 0.0996578 0 0 0
184 3 0.0212648 0.632395 0.0805249 0 0 0
260 3 0.323836 0.80963 0.190486 0 0 0
27 2 0.0955402 0.664864 0.270805 0 0 0
90 2 0.0220612 0.658235 0.422279 0 0 0
79 2 0.217453 0.827471 0.430274 0 0 0
274 3 0.320947 0.661927 0.277713 0 0 0
242 3 0.166888 0.802084 0.314571 0 -1 0
45 2 0.0501759 0.992434 0.449706 0 0 0
263 3 0.114095 0.795782 0.442684 0 -1 0
232 3 0.202138 0.626863 0.411343 0 0 0
194 3 0.00479027 0.652514 0.319986 1 0 0
209 3 0.166699 0.837526 0.711747 0 -1 -1
179 3 0.0294967 0.814084 0.640522 0 0 0
81 2 0.120849 0.79667 0.598842 0 0 0
116 3 0.287032 0.969249 0.673776 0 -1 0
271 3 0.288213 0.850116 0.547723 0 0 0
227 3 0.0993938 0.617189 0.633937 0 0 0
76 2 0.313105 0.66425 0.575989 0 0 0
133 3 0.202898 0.523077 0.572641 0 0 0
131 3 0.0118577 0.997541 0.716338 1 -1 0
37 2 0.255483 0.686599 0.747749 0 0 0
11 1 0.294036 0.981065 0.59459 0 -1 0
245 3 0.0252168 0.794743 0.50269 0 0 0
29 2 0.196344 0.639648 0.923033 0 0 0
196 3 0.272271 0.521781 0.924889 0 0 0
120 3 0.136886 0.824768 0.926314 0 0 0
207 3 0.331193 0.789466 0.819295 0 -1 0
141 3 0.288238 0.765077 0.950921 0 -1 0
97 2 0.0360922 0.844845 0.931304 0 0 0
64 2 0.0864614 0.822082 0.759607 0 0 0
235 3 0.170152 0.674912 0.809946 0 0 0
165 3 0.100354 0.542509 0.98196 1 0 0
145 3 0.156484 0.977753 0.81011 0 0 0
250 3 0.311497 0.965279 0.917521 0 -1 -1
72 2 0.211468 0.989919 0.929858 0 0 0
211 3 0.0469441 0.999937 0.892755 1 0 0
167 3 0.0617752 0.512043 0.830339 0 0 -1
122 3 0.363947 0.32145 0.12222 0 0 0
103 2 0.470816 0.343809 0.0810855 0 0 0
54 2 0.633342 0.144893 0.0771088 0 0 0
180 3 0.549768 0.307837 0.206695 0 0 0
205 3 0.460207 0.122158 0.0965886 0 0 0
249 3 0.6462 0.132006 0.186162 0 0 1
248 3 0.587907 0.344354 0.0569521 -1 0 0
217 3 0.518385 0.499228 0.146276 0 0 0
2 1 0.63191 0.479074 0.0835775 0 0 0
176 3 0.348884 0.134792 0.227478 0 1 0
223 3 0.662713 0.479439 0.172636 0 0 1
94 2 0.540505 0.204057 0.431178 0 0 0
23 2 0.608281 0.15394 0.270084 0 0 0
173 3 0.454792 0.333969 0.369575 0 0 0
282 3 0.601413 0.367642 0.450236 0 1 0
87 2 0.36643 0.34489 0.413677 0 0 0
234 3 0.473874 0.303453 0.488228 0 1 0
114 3 0.511919 0.158658 0.309581 0 0 0
6 1 0.369527 0.02434 0.424079 0 0 0
66 2 0.433196 0.340642 0.251569 0 0 0
107 2 0.59795 0.490688 0.253049 0 0 0
191 3 0.450627 0.0687505 0.419044 0 0 0
20 2 0.431464 0.0290255 0.278032 0 0 0
130 3 0.523428 0.485251 0.294315 0 0 0
16 1 0.603775 0.00490343 0.591942 0 0 0
252 3 0.373489 0.223898 0.563023 1 0 0
168 3 0.531812 0.345956 0.613271 0 0 0
96 2 0.473085 0.192967 0.571878 0 0 0
246 3 0.495996 0.206792 0.693396 0 0 0
21 2 0.412084 0.142294 0.730581 0 0 0
85 2 0.634062 0.366266 0.592942 0 0 0
214 3 0.604187 0.142943 0.567243 0 0 0
68 2 0.57123 0.344181 0.746727 0 0 0
283 3 0.36096 0.477942 0.587226 1 0 0
195 3 0.54546 0.012135 0.641122 0 0 0
125 3 0.391803 0.00634018 0.641762 0 0 0
153 3 0.473088 0.325586 0.79944 0 1 0
156 3 0.611387 0.327431 0.88283 0 0 0
56 2 0.37747 0.130611 0.934186 0 0 0
101 2 0.516105 0.345417 0.90705 0 0 0
266 3 0.367431 0.358291 0.937527 0 0 0
222 3 0.368528 0.143423 0.829683 0 0 0
1 1 0.361148 0.498335 0.946918 0 0 0
231 3 0.525337 0.11952 0.959001 0 0 0
215 3 0.498525 0.0026179 0.830606 0 0 0
19 2 0.574654 0.0253424 0.761733 0 0 0
236 3 0.567775 0.584001 0.0400954 0 0 0
212 3 0.562317 0.930595 0.140056 0 -1 0
261 3 0.532729 0.681481 0.212776 0 -1 0
102 2 0.49338 0.668722 0.101279 0 0 0
55 2 0.661909 0.821118 0.105199 0 0 0
123 3 0.383637 0.680863 0.114515 0 0 0
265 3 0.425597 0.867569 0.0470343 0 -1 0
148 3 0.359567 0.51229 0.205805 0 0 0
193 3 0.427417 0.988348 0.173808 0 -1 1
67 2 0.413023 0.67169 0.245461 0 0 0
10 1 0.463615 0.973343 0.112192 0 0 0
22 2 0.587076 0.849259 0.244608 0 0 0
203 3 0.396986 0.511839 0.0313984 0 0 1
47 2 0.525267 0.500564 0.404785 0 0 0
272 3 0.491351 0.853691 0.288359 0 0 0
86 2 0.34978 0.673805 0.389799 0 0 0
126 3 0.641726 0.531933 0.37613 0 0 0
95 2 0.523356 0.853423 0.409404 0 0 0
115 3 0.620326 0.737737 0.460091 0 0 0
152 3 0.40599 0.508777 0.422706 0 0 0
239 3 0.449148 0.72217 0.39373 0 0 0
208 3 0.658072 0.731187 0.308467 0 0 0
276 3 0.622751 0.978474 0.395962 0 -1 0
166 3 0.335607 0.944783 0.356981 0 -1 0
177 3 0.33866 0.667053 0.698222 0 0 0
219 3 0.413459 0.727682 0.644173 0 0 0
206 3 0.399385 0.717928 0.520989 0 0 0
275 3 0.553825 0.696952 0.623364 0 -1 0
93 2 0.464446 0.857555 0.589115 0 0 0
48 2 0.475138 0.54043 0.587569 0 0 0
157 3 0.527573 0.847032 0.708381 0 -1 0
88 2 0.634222 0.688214 0.579894 0 0 0
186 3 0.541437 0.92699 0.52389 -1 0 -1
129 3 0.526784 0.529499 0.706023 0 0 0
24 2 0.426351 0.821205 0.740271 0 0 0
65 2 0.604517 0.696235 0.732809 0 0 0
151 3 0.550303 0.574304 0.518178 0 0 0
108 2 0.413819 0.515259 0.727758 0 0 0
140 3 0.660932 0.538768 0.646496 0 0 0
154 3 0.388042 0.974205 0.504629 0 -1 0
9 1 0.536794 0.992513 0.928527 0 -1 0
197 3 0.626373 0.710038 0.887779 0 0 0
53 2 0.388316 0.795406 0.932944 0 0 0
104 2 0.524849 0.668665 0.901894 0 0 0
262 3 0.475508 0.660552 0.783536 0 0 0
228 3 0.499104 0.906368 0.96231 0 -1 -1
170 3 0.563652 0.509455 0.892151 0 0 -1
113 3 0.418186 0.578851 0.906202 0 0 0
121 3 0.621761 0.944999 0.949645 0 0 0
147 3 0.654446 0.538271 0.792675 0 0 0
30 2 0.782234 0.316547 0.0637112 0 0 0
135 3 0.837348 0.406278 0.200658 0 0 0
198 3 0.994679 0.408152 0.0310089 -1 -1 0
98 2 0.98717 0.158913 0.0785237 0 0 0
192 3 0.72432 0.264754 0.125551 0 1 1
38 2 0.753999 0.328488 0.235689 0 0 0
253 3 0.861608 0.193258 0.10453 0 0 1
71 2 0.827315 0.00412747 0.0839351 0 1 0
163 3 0.718208 0.160835 0.0208362 0 0 0
158 3 0.903224 0.494822 0.0866083 -1 0 0
75 2 0.702572 0.382693 0.420265 0 0 0
224 3 0.920976 0.434082 0.457461 0 0 0
82 2 0.837535 0.151281 0.401795 0 0 0
278 3 0.970836 0.321775 0.299647 -1 0 0
264 3 0.821182 0.176358 0.26139 0 1 0
63 2 0.926333 0.167657 0.257115 0 0 0
280 3 0.946153 0.157951 0.386422 0 1 0
164 3 0.831861 0.484671 0.315898 -1 0 0
190 3 0.744689 0.136689 0.478862 0 1 0
12 1 0.696053 0.0064665 0.467187 0 1 0
285 3 0.682817 0.291847 0.315046 0 0 0
267 3 0.89023 0.0186138 0.483515 0 1 0
218 3 0.790059 0.0157257 0.355498 0 0 1
89 2 0.967671 0.348931 0.583713 0 0 0
251 3 0.824307 0.494971 0.691664 -1 0 0
270 3 0.756773 0.382857 0.567416 0 0 0
80 2 0.807492 0.159002 0.598501 0 0 0
139 3 0.89023 0.222446 0.551461 0 0 0
240 3 0.862953 0.226829 0.701476 -1 0 0
13 1 0.810634 0.500158 0.608786 0 0 0
162 3 0.88945 0.464267 0.600552 0 0 0
46 2 0.968861 0.00484909 0.587996 0 0 0
284 3 0.708494 0.352063 0.6939 0 0 0
127 3 0.876563 0.0015892 0.621877 0 0 0
259 3 0.771251 0.277166 0.95032 0 0 0
161 3 0.9953 0.371782 0.895128 -1 0 0
106 2 0.923168 0.000431584 0.758295 0 0 0
57 2 0.865675 0.329581 0.921425 0 0 0
178 3 0.934652 0.0903491 0.957606 0 0 -1
119 3 0.836951 0.305694 0.816987 0 0 -1
28 2 0.926726 0.362042 0.751663 0 0 0
33 2 0.676407 0.173627 0.906743 0 0 0
41 2 0.758526 0.189545 0.752641 0 0 0
277 3 0.98688 0.18591 0.80516 0 0 0
225 3 0.788953 0.0100894 0.958975 0 0 0
247 3 0.841565 0.0201321 0.848097 0 1 0
3 1 0.863804 0.00280752 0.934343 0 1 0
281 3 0.670229 0.169752 0.791549 0 0 0
51 2 0.753347 0.997604 0.221684 0 0 0
31 2 0.804233 0.672037 0.0983147 0 0 0
118 3 0.889124 0.786597 0.107288 0 0 0
202 3 0.718688 0.785229 0.0353607 0 0 0
155 3 0.683861 0.783353 0.218186 0 0 0
182 3 0.775483 0.802314 0.167192 0 0 0
99 2 0.992792 0.839751 0.0995733 0 0 0
109 3 0.867495 0.670728 0.217204 0 0 0
142 3 0.703708 0.993475 0.114749 0 -1 0
216 3 0.688348 0.511287 0.0366714 0 0 0
18 2 0.918768 0.51485 0.228179 0 0 0
146 3 0.856175 0.988722 0.202216 0 0 0
237 3 0.939223 0.996598 0.09438 0 0 1
8 1 0.988677 0.50113 0.0924383 0 0 0
255 3 0.837125 0.843487 0.310196 -1 0 0
134 3 0.747064 0.883632 0.469267 0 0 0
136 3 0.899386 0.654942 0.422152 -1 0 0
83 2 0.850444 0.867142 0.422285 0 0 0
74 2 0.697412 0.703242 0.413613 0 0 0
150 3 0.781896 0.528797 0.427704 0 -1 0
62 2 0.931204 0.862737 0.266793 0 0 0
174 3 0.943199 0.907605 0.377864 0 0 0
15 1 0.858936 0.526178 0.406333 0 0 0
39 2 0.779584 0.684804 0.255771 0 0 0
183 3 0.874723 0.792549 0.554565 0 0 0
77 2 0.798422 0.834068 0.600471 0 0 0
137 3 0.699965 0.720505 0.707598 0 -1 0
143 3 0.780507 0.632485 0.586284 0 0 0
273 3 0.830403 0.820736 0.706387 0 0 0
92 2 0.960369 0.659143 0.596458 0 0 0
286 3 0.671013 0.964924 0.669553 0 -1 0
181 3 0.967339 0.608219 0.696422 -1 -1 0
50 2 0.74625 0.528585 0.744708 0 0 0
171 3 0.683948 0.970329 0.543908 0 0 0
117 3 0.984572 0.827292 0.806777 -1 0 0
36 2 0.703202 0.851741 0.935974 0 0 0
204 3 0.797458 0.690456 0.978387 0 -1 0
60 2 0.874521 0.671065 0.938483 0 0 0
229 3 0.900301 0.864745 0.960473 0 -1 -1
124 3 0.831835 0.717918 0.823143 0 0 0
111 3 0.971716 0.606091 0.874342 -1 0 0
200 3 0.670844 0.904333 0.802135 0 -1 0
25 2 0.925074 0.676764 0.772183 0 0 0
44 2 0.756472 0.871129 0.764833 0 0 0
70 2 0.682508 0.522385 0.905092 0 0 0
257 3 0.831228 0.501211 0.891042 0 0 -1
ITEM: TIMESTEP
130002
ITEM: NUMBER OF ATOMS
286
ITEM: BOX BOUNDS xy xz yz pp pp pp
-7.6875842777000001e+00 2.0029380798300000e+01 0.0000000000000000e+00
0.0000000000000000e+00 1.1596211433400001e+01 -7.6875842777000001e+00
0.0000000000000000e+00 1.9680415410399998e+01 0.0000000000000000e+00
ITEM: ATOMS id type xs ys zs ix iy iz
159 3 0.155252 0.354381 0.199983 0 0 0
35 2 0.304197 0.160361 0.100604 0 0 0
59 2 0.147634 0.313617 0.0951486 0 0 0
220 3 0.162696 0.0583396 0.179224 0 0 0
213 3 0.0296085 0.188906 0.190502 0 0 0
210 3 0.0792958 0.154166 0.0615695 0 1 1
226 3 0.251358 0.241955 0.159604 0 1 0
238 3 0.219234 0.260781 0.018714 0 0 0
69 2 0.306612 0.49854 0.0919194 0 0 0
144 3 0.221795 0.496338 0.134054 0 0 0
258 3 0.229018 0.00898558 0.0774274 0 0 1
233 3 0.0431024 0.475465 0.183297 0 -1 0
49 2 0.237722 0.495422 0.238865 0 0 0
26 2 0.0942234 0.316204 0.271484 0 0 0
241 3 0.163632 0.186876 0.321593 0 0 0
78 2 0.202797 0.165903 0.433192 0 0 0
91 2 0.00751911 0.325163 0.412603 0 0 0
268 3 0.231011 0.387265 0.443146 0 0 0
149 3 0.102156 0.193065 0.477095 0 0 0
43 2 0.245343 0.196028 0.25693 0 0 0
254 3 0.31567 0.140103 0.405731 0 0 0
172 3 0.301751 0.348459 0.286788 0 0 0
132 3 0.0149349 0.0126171 0.297887 1 0 0
269 3 0.093983 0.437336 0.395461 0 0 0
105 2 0.0882868 0.0250299 0.252025 0 0 0
175 3 0.167127 0.448613 0.309496 0 0 0
14 1 0.175141 0.478503 0.391586 0 0 0
128 3 0.156895 0.00246372 0.411042 0 1 0
279 3 0.18882 0.14058 0.715598 1 1 0
169 3 0.252828 0.108184 0.559031 0 1 0
73 2 0.282526 0.338218 0.561916 0 0 0
112 3 0.153117 0.386702 0.657963 1 0 0
110 3 0.0687639 0.46377 0.53773 0 0 -1
84 2 0.154981 0.160176 0.611944 0 0 0
5 1 0.137928 0.49741 0.601296 0 0 0
188 3 0.0542147 0.176959 0.627564 1 0 0
185 3 0.015702 0.348997 0.70699 1 0 0
160 3 0.312327 0.320976 0.671475 0 1 0
17 2 0.090087 0.495035 0.737433 0 0 0
189 3 0.109949 0.0038038 0.5788 0 0 0
7 1 0.0358988 0.501244 0.901101 0 0 0
32 2 0.21289 0.320676 0.909633 0 0 0
243 3 0.18723 0.360158 0.798215 0 0 0
40 2 0.27357 0.325051 0.766617 0 0 0
100 2 0.0307449 0.185807 0.910537 0 0 0
256 3 0.122062 0.236834 0.887575 1 0 -1
230 3 0.26292 0.154914 0.882588 0 0 0
61 2 0.0794191 0.151315 0.752693 0 0 0
52 2 0.261624 0.0016572 0.77624 0 1 0
201 3 0.306335 0.497496 0.773534 0 0 0
42 2 0.236118 0.817469 0.230023 0 0 0
199 3 0.249368 0.657283 0.0632733 0 0 0
34 2 0.316749 0.823915 0.0773528 0 0 0
187 3 0.164067 0.674475 0.185411 0 0 0
58 2 0.152378 0.644636 0.0817409 0 0 0
221 3 0.18339 0.83495 0.115638 0 0 0
244 3 0.0408029 0.841878 0.218843 0 -1 0
138 3 0.0740394 0.937448 0.0537943 0 0 0
4 1 0.157726 0.982127 0.100277 0 0 0
184 3 0.0204532 0.635068 0.0802495 0 0 0
260 3 0.324231 0.809897 0.190155 0 0 0
27 2 0.0955529 0.664563 0.270701 0 0 0
90 2 0.0222593 0.658562 0.422358 0 0 0
79 2 0.217447 0.82733 0.430365 0 0 0
274 3 0.321515 0.661876 0.278218 0 0 0
242 3 0.168779 0.800822 0.314336 0 -1 0
45 2 0.0502814 0.993396 0.450041 0 0 0
263 3 0.113551 0.796916 0.442941 0 -1 0
232 3 0.202414 0.628119 0.410782 0 0 0
194 3 0.00622006 0.653185 0.321416 1 0 0
209 3 0.167271 0.836783 0.712568 0 -1 -1
179 3 0.0301703 0.815205 0.639648 0 0 0
81 2 0.121577 0.796542 0.599253 0 0 0
116 3 0.287436 0.966929 0.673403 0 -1 0
271 3 0.288802 0.850033 0.547191 0 0 0
227 3 0.0982225 0.6189 0.634258 0 0 0
76 2 0.312979 0.664026 0.576076 0 0 0
133 3 0.203119 0.522345 0.5718 0 0 0
131 3 0.0131157 0.998324 0.717193 1 -1 0
37 2 0.255838 0.686844 0.74797 0 0 0
11 1 0.29357 0.981915 0.594262 0 -1 0
245 3 0.026295 0.794183 0.503048 0 0 0
29 2 0.19575 0.639951 0.922446 0 0 0
196 3 0.270767 0.521813 0.924531 0 0 0
120 3 0.137214 0.824231 0.926675 0 0 0
207 3 0.331591 0.789679 0.820322 0 -1 0
141 3 0.287545 0.764064 0.950003 0 -1 0
97 2 0.036228 0.845293 0.931156 0 0 0
64 2 0.0866603 0.822649 0.759455 0 0 0
235 3 0.17081 0.677198 0.810206 0 0 0
165 3 0.101491 0.543485 0.982995 1 0 0
145 3 0.15578 0.977106 0.809734 0 0 0
250 3 0.313011 0.964853 0.917814 0 -1 -1
72 2 0.211376 0.990103 0.929734 0 0 0
211 3 0.0473739 1.00066 0.89389 1 0 0
167 3 0.060579 0.513152 0.831027 0 0 -1
122 3 0.365047 0.323683 0.122648 0 0 0
103 2 0.470836 0.343181 0.0813015 0 0 0
54 2 0.633183 0.144821 0.0768052 0 0 0
180 3 0.548166 0.305358 0.205816 0 0 0
205 3 0.460517 0.121206 0.0972511 0 0 0
249 3 0.64558 0.128648 0.186756 0 0 1
248 3 0.588172 0.345015 0.0562695 -1 0 0
217 3 0.521119 0.498806 0.147888 0 0 0
2 1 0.632124 0.47899 0.0828335 0 0 0
176 3 0.349517 0.136492 0.22676 0 1 0
223 3 0.663106 0.48003 0.171678 0 0 1
94 2 0.540633 0.204276 0.431516 0 0 0
23 2 0.607985 0.154276 0.270099 0 0 0
173 3 0.45417 0.333139 0.369349 0 0 0
282 3 0.599768 0.36737 0.449771 0 1 0
87 2 0.366556 0.345681 0.413479 0 0 0
234 3 0.472505 0.304755 0.486993 0 1 0
114 3 0.510812 0.159316 0.310146 0 0 0
6 1 0.370029 0.0247968 0.424215 0 0 0
66 2 0.432592 0.340037 0.251513 0 0 0
107 2 0.597473 0.490619 0.252892 0 0 0
191 3 0.449142 0.0704013 0.417711 0 0 0
20 2 0.43133 0.0295297 0.278055 0 0 0
130 3 0.52304 0.48545 0.295173 0 0 0
16 1 0.603736 0.00393994 0.591361 0 0 0
252 3 0.372423 0.222754 0.561357 1 0 0
168 3 0.532197 0.342018 0.613408 0 0 0
96 2 0.472793 0.193522 0.571829 0 0 0
246 3 0.494112 0.209101 0.692661 0 0 0
21 2 0.411857 0.142237 0.730703 0 0 0
85 2 0.633919 0.365807 0.593508 0 0 0
214 3 0.604529 0.14276 0.566959 0 0 0
68 2 0.571293 0.344078 0.746773 0 0 0
283 3 0.360587 0.476755 0.587606 1 0 0
195 3 0.546718 0.0147496 0.641953 0 0 0
125 3 0.389638 0.00620088 0.640245 0 0 0
153 3 0.473334 0.327885 0.799599 0 1 0
156 3 0.611353 0.327165 0.882646 0 0 0
56 2 0.377699 0.130393 0.934383 0 0 0
101 2 0.516356 0.344876 0.907541 0 0 0
266 3 0.366994 0.357801 0.939172 0 0 0
222 3 0.36808 0.142202 0.829524 0 0 0
1 1 0.361513 0.49853 0.946267 0 0 0
231 3 0.524793 0.120936 0.957828 0 0 0
215 3 0.498398 0.00121854 0.830964 0 0 0
19 2 0.574411 0.0262366 0.762191 0 0 0
236 3 0.566671 0.584483 0.0404131 0 0 0
212 3 0.563247 0.931755 0.138816 0 -1 0
261 3 0.532489 0.682587 0.213136 0 -1 0
102 2 0.493773 0.669215 0.101554 0 0 0
55 2 0.66219 0.820438 0.105065 0 0 0
123 3 0.382967 0.681841 0.115509 0 0 0
265 3 0.424879 0.866401 0.0476967 0 -1 0
148 3 0.360533 0.51192 0.205189 0 0 0
193 3 0.427762 0.987299 0.17246 0 -1 1
67 2 0.412864 0.671242 0.245369 0 0 0
10 1 0.46356 0.973485 0.112229 0 0 0
22 2 0.587127 0.848547 0.244639 0 0 0
203 3 0.398024 0.513957 0.0321062 0 0 1
47 2 0.525434 0.500583 0.404825 0 0 0
272 3 0.490066 0.853943 0.28899 0 0 0
86 2 0.350019 0.674164 0.389804 0 0 0
126 3 0.64313 0.531184 0.37474 0 0 0
95 2 0.523334 0.853422 0.409237 0 0 0
115 3 0.621282 0.734908 0.460785 0 0 0
152 3 0.406644 0.509033 0.42367 0 0 0
239 3 0.448517 0.721965 0.394046 0 0 0
208 3 0.657989 0.730702 0.307624 0 0 0
276 3 0.623091 0.97833 0.394667 0 -1 0
166 3 0.335274 0.944251 0.354088 0 -1 0
177 3 0.336983 0.66699 0.698114 0 0 0
219 3 0.41436 0.728024 0.643666 0 0 0
206 3 0.399436 0.719192 0.520228 0 0 0
275 3 0.554871 0.695543 0.622233 0 -1 0
93 2 0.46462 0.856904 0.589123 0 0 0
48 2 0.474837 0.54037 0.587514 0 0 0
157 3 0.52568 0.84731 0.708335 0 -1 0
88 2 0.634168 0.687688 0.579652 0 0 0