ITEM: TIMESTEP
2000
ITEM: NUMBER OF ATOMS
3
ITEM: BOX BOUNDS
0 40
0 40
0 40
ITEM: ATOMS id type xs ys zs ix iy iz fx fy vx fz vy vz
1 1 0.0822475 0.0311116 0.149519 0 0 0 1.0 2.0 1.0 3.0 2.0 3.0
2 2 0.104503 0.0464002 0.123532 0 0 0 1.0 2.0 1.0 3.0 2.0 3.0
3 3 0.137759 0.0314976 0.123125 0 0 0 1.0 2.0 1.0 3.0 2.0 3.0
ITEM: TIMESTEP
4000
ITEM: NUMBER OF ATOMS
20
ITEM: BOX BOUNDS
0 40
0 40
0 40
ITEM: ATOMS id type xs ys zs ix iy iz fx fy vx fz vy vz
1 1 0.0852354 0.0614499 0.155632 0 0 0 4.0 5.0 4.0 6.0 5.0 6.0
2 2 0.0981199 0.028017 0.156516 0 0 0 1.0 2.0 1.0 3.01 2.0 1.0
3 3 0.12663 0.0197264 0.180332 0 0 0 1.0 2.0 1.0 3.0 2.0 3.0
