 lAMMPS data file generated by the Towhee Monte Carlo code

 3 atoms
 0 bonds
 0 angles
 0 dihedrals
 0 impropers

 3 atom types
 0 bond types
 0 angle types
 0 dihedral types
 0 improper types

 0.0   40. xlo xhi
 0.0   40. ylo yhi
 0.0   40. zlo zhi

Masses

 1  14.0067
 2  12.0107
 3  12.0107

Atoms

      1      1   1  -0.300   5.00000   5.00000   5.00000    0    0    0
      2      1   2   0.130   4.33523   4.42477   6.18306    0    0    0
      3      1   3   0.510   5.14033   3.26351   6.56987    0    0    0
