ITEM: TIMESTEP
130000
ITEM: NUMBER OF ATOMS
286
ITEM: BOX BOUNDS xy xz yz pp pp pp
-7.6875842777000001e+00 2.0029380798300000e+01 0.0000000000000000e+00
0.0000000000000000e+00 1.1596211433400001e+01 -7.6875842777000001e+00
0.0000000000000000e+00 1.9680415410399998e+01 0.0000000000000000e+00
ITEM: ATOMS id type xu yu zu
159 3 1.55798 4.11905 3.97624
35 2 5.32945 1.84987 1.9877
59 2 2.2259 3.64355 1.87337
220 3 1.91403 0.727462 3.55771
213 3 -0.900332 2.18147 3.78822
210 3 -6.57273 13.3322 20.9229
226 3 3.7922 14.3932 3.13818
238 3 4.28218 3.03851 0.341477
69 2 5.4429 5.77858 1.82066
144 3 3.42025 5.7222 2.65109
258 3 -3.73524 0.0980947 21.1895
233 3 -0.562974 -6.11803 3.58623
49 2 2.93936 5.75375 4.69976
26 2 -0.19727 3.66874 5.33732
241 3 0.815708 2.15457 6.31446
78 2 0.731621 1.92106 8.53027
91 2 -3.01377 3.75595 8.12508
268 3 1.15721 4.45854 8.70956
149 3 -1.59908 2.25712 9.36223
43 2 2.95386 2.26627 5.06243
254 3 3.18716 1.66363 7.95295
172 3 3.8346 4.0825 5.66274
132 3 18.0085 0.132945 5.89978
269 3 -1.12737 5.07215 7.76666
105 2 -0.154821 0.275368 4.96399
175 3 1.01497 5.22677 6.06427
14 1 0.44628 5.56548 7.72387
128 3 -0.00226248 11.607 8.07109
279 3 18.2768 13.274 14.1413
169 3 0.723327 12.8437 10.9749
73 2 1.35807 3.92482 11.0558
112 3 18.0602 4.47811 12.911
110 3 4.89763 5.3817 -9.17081
84 2 -1.60383 1.84478 12.0386
5 1 -1.86582 5.75485 11.8609
188 3 16.2841 2.08508 12.3496
185 3 14.9304 4.09507 13.9148
160 3 1.12101 15.3168 13.2014
17 2 -3.86617 5.74998 14.5204
189 3 -2.26764 0.0351283 11.3391
7 1 -6.20514 5.78824 17.7109
32 2 -2.74416 3.72498 17.9039
243 3 -2.35973 4.18184 15.6939
40 2 -0.422076 3.77118 15.0802
100 2 -6.40776 2.15542 17.9286
256 3 23.2555 2.74474 -2.20689
230 3 -1.52379 1.77896 17.3804
61 2 -4.18056 1.75592 14.8103
52 2 -0.721785 11.6125 15.2735
201 3 0.155444 5.78463 15.2056
42 2 2.94953 9.495 4.5186
199 3 4.50742 7.62957 1.28033
34 2 5.74998 9.53948 1.5309
187 3 1.8181 7.83395 3.67562
58 2 2.417 7.47789 1.59963
221 3 2.73935 9.63571 2.24166
244 3 -0.854091 -1.82906 4.33364
138 3 1.03691 10.9174 1.04363
4 1 2.38255 11.4021 1.95143
184 3 -0.179387 7.30488 1.58862
260 3 5.01306 9.38514 3.75446
27 2 -0.169401 7.71364 5.33142
90 2 -2.80765 7.62949 8.30952
79 2 1.04811 9.59722 8.46585
274 3 4.28192 7.67786 5.4585
242 3 0.886792 -2.27944 6.19689
45 2 -2.4517 11.4972 8.84361
263 3 -1.10367 -2.38138 8.70638
232 3 0.875761 7.2498 8.10565
194 3 17.6494 7.56013 6.26593
209 3 5.55291 -1.87339 -5.68909
179 3 -4.35355 9.42647 12.6211
81 2 -2.19465 9.24007 11.7772
116 3 0.555745 -0.330604 13.2667
271 3 1.54328 9.86335 10.7917
227 3 -2.85598 7.13677 12.4707
76 2 1.8466 7.7052 11.334
133 3 -0.343282 6.07561 11.2854
131 3 14.7397 -0.0367228 14.0819
37 2 -0.636735 7.9588 14.7117
11 1 1.32731 -0.228804 11.7101
245 3 -3.37954 9.22257 9.8876
29 2 -3.15615 7.41464 18.1771
196 3 -1.62865 6.04899 18.208
120 3 -4.38021 9.56889 18.224
207 3 0.336245 -2.4415 16.1043
141 3 -1.53229 -2.71456 18.7339
97 2 -6.44053 9.79176 18.3313
64 2 -4.11282 9.52657 14.9524
235 3 -2.82979 7.79843 15.9364
165 3 14.4756 6.27691 19.2993
145 3 -3.08144 11.3464 15.9533
250 3 6.85141 -0.399745 -1.62858
72 2 -2.91209 11.4772 18.302
211 3 14.1061 11.59 17.5461
167 3 2.5726 5.92369 -3.35142
122 3 6.33689 3.70266 2.39796
103 2 8.80805 3.99414 1.59202
54 2 12.0936 1.68123 1.52358
180 3 9.44603 3.59652 4.08569
205 3 8.47511 1.42426 1.88463
249 3 3.84319 1.57032 23.3343
248 3 -8.70385 3.9872 1.13369
217 3 9.21356 5.79236 2.8435
2 1 12.0043 5.55658 1.6578
176 3 5.21881 13.1427 4.48987
223 3 4.24739 5.55472 23.0944
94 2 7.51106 2.3637 8.47905
23 2 10.1132 1.78149 5.31485
173 3 6.27966 3.8815 7.27536
282 3 8.61674 15.8611 8.87049
87 2 4.15516 3.99004 8.14519
234 3 5.75699 15.0989 9.63018
114 3 7.90096 1.83529 6.08207
6 1 4.13364 0.278183 8.34475
66 2 6.75437 3.95723 4.95199
107 2 10.04 5.69099 4.98299
191 3 5.82545 0.778736 8.27237
20 2 6.50732 0.330358 5.47156
130 3 8.2242 5.62178 5.77488
16 1 7.53887 0.0673957 11.662
252 3 23.1827 2.61415 11.112
168 3 5.9326 4.06131 12.0713
96 2 5.08496 2.23088 11.2559
246 3 4.63458 2.36956 13.6629
21 2 2.64278 1.65106 14.3758
85 2 8.14882 4.25273 11.658
214 3 7.73329 1.6643 11.1685
68 2 5.69988 3.99257 14.695
283 3 22.7553 5.55796 11.55
195 3 5.97806 0.112585 12.6006
125 3 2.94358 0.0737433 12.6575
153 3 3.32669 15.3448 15.7287
156 3 5.46071 3.79889 17.3789
56 2 0.375697 1.51713 18.3811
101 2 3.36299 4.01184 17.8413
266 3 0.175767 4.15366 18.4173
222 3 1.01027 1.67611 16.3313
1 1 -0.0553602 5.77803 18.6466
231 3 3.15129 1.37667 18.8978
215 3 3.60543 0.046513 16.3417
19 2 5.66278 0.28316 14.982
236 3 11.0883 6.76613 0.78509
212 3 10.1514 -0.818038 2.77769
261 3 9.04306 -3.70385 4.1786
102 2 9.0976 7.74872 1.98797
55 2 12.4421 9.52964 2.07293
123 3 6.82792 7.88212 2.23616
265 3 8.18018 -1.51894 0.915198
148 3 5.59659 5.94185 4.06149
193 3 -0.480022 -0.125902 23.1268
67 2 6.38822 7.79454 4.83242
10 1 8.42758 11.2872 2.20718
22 2 9.87744 9.85635 4.81359
203 3 0.00928213 5.91252 20.2893
47 2 7.40583 5.80478 7.96566
272 3 7.65574 9.8953 5.66528
86 2 4.00449 7.80938 7.67164
126 3 9.92313 6.17727 7.43267
95 2 7.33459 9.89663 8.06065
115 3 8.8714 8.58827 9.03816
152 3 4.87548 5.90246 8.29911
239 3 5.98519 8.37521 7.74109
208 3 10.8045 8.4827 6.09382
276 3 9.41214 -0.245613 7.81724
166 3 3.96009 -0.64269 7.07556
177 3 1.44575 7.73754 13.7419
219 3 3.30914 8.43546 12.6877
206 3 3.98526 8.30637 10.2661
275 3 6.26862 -3.4962 12.2886
93 2 4.77027 9.95188 11.5939
48 2 5.00552 6.26766 11.5645
157 3 5.15447 -1.77375 13.9455
88 2 8.24438 7.98681 11.4172
186 3 -5.54146 10.7615 -9.37105
129 3 5.11829 6.135 13.9229
24 2 2.85761 9.53064 14.5698
65 2 6.4732 8.06986 14.4308
151 3 7.05213 6.66094 10.2064
108 2 2.694 5.97689 14.3143
140 3 8.26772 6.25149 12.7268
154 3 3.89058 -0.313358 9.92362
9 1 3.61741 -0.0856561 18.2525
197 3 5.73933 8.21441 17.4768
53 2 0.602514 9.23068 18.3679
104 2 3.57847 7.75364 17.7463
262 3 3.50891 7.63956 15.4004
228 3 10.2652 -1.1116 -0.72765
170 3 12.1561 5.92573 -2.1507
113 3 1.41697 6.74031 17.8561
121 3 5.13543 10.9458 18.6823
147 3 7.02171 6.24522 15.6218
30 2 15.1729 3.66688 1.25192
135 3 15.2136 4.69615 3.96603
198 3 -0.33312 -6.83755 0.599916
98 2 19.1717 1.83514 1.54985
192 3 5.85979 14.7078 22.1418
38 2 13.2906 3.80094 4.64314
253 3 8.76812 2.22765 21.7444
71 2 15.9288 11.6475 1.65144
163 3 14.2344 1.81525 0.397853
158 3 -2.58372 5.75725 1.72202
75 2 10.8425 4.44119 8.26833
224 3 14.9254 5.03743 9.02307
82 2 13.6918 1.75234 7.90695
278 3 -2.86522 3.74137 5.85843
264 3 14.4136 13.6289 5.18161
63 2 16.5782 1.94662 5.06332
280 3 15.9935 13.4235 7.55827
164 3 -5.8113 5.6273 6.22208
190 3 11.2671 13.1786 9.43248
12 1 10.3497 11.6888 9.19842
285 3 11.2441 3.38784 6.18747
267 3 14.1078 11.7988 9.50522
218 3 5.38811 0.202982 26.6917
89 2 14.8921 4.0419 11.4818
251 3 -8.83567 5.72939 13.6044
270 3 10.816 4.4533 11.1399
80 2 11.5694 1.85082 11.7742
139 3 13.5705 2.57408 10.8402
240 3 -8.15886 2.63332 13.8028
13 1 11.5597 5.78478 11.9835
162 3 13.2042 5.37614 11.8238
46 2 14.8919 0.0631028 11.5734
284 3 8.82877 4.08506 13.654
127 3 12.7745 0.00212798 12.2374
259 3 8.16165 3.22243 18.6825
161 3 -6.97398 4.30534 17.5958
106 2 12.6642 0.0141666 14.9232
57 2 10.2544 3.81132 18.1347
178 3 19.0594 1.06856 -0.836432
119 3 18.143 3.54341 -3.61845
28 2 12.7832 4.1965 14.791
33 2 6.57239 2.01375 17.8489
41 2 9.40302 2.20618 14.8153
277 3 13.5817 2.13527 15.81
225 3 8.44093 0.124545 18.8802
247 3 10.3442 11.8347 16.6663
3 1 10.1048 11.6198 18.3964
281 3 7.32928 1.96853 15.5925
51 2 13.3821 11.5626 4.36753
31 2 15.348 7.79149 1.92486
118 3 16.9717 9.11568 2.124
202 3 14.152 9.1119 0.695069
155 3 12.0122 9.06904 4.32064
182 3 14.2343 9.26638 3.26246
99 2 19.1204 9.74234 1.9568
109 3 15.7112 7.81295 4.28014
142 3 13.1955 -0.0707184 2.27489
216 3 13.5029 5.95158 0.701062
18 2 16.6538 5.96762 4.48739
146 3 15.6176 11.4561 4.0017
237 3 10.4199 11.5377 21.5502
8 1 19.0901 5.80504 1.82828
255 3 -5.65842 9.76264 6.11882
134 3 11.3483 10.2441 9.24322
136 3 -5.27083 7.59474 8.3231
83 2 13.7801 10.0539 8.31675
74 2 10.7892 8.15951 8.1399
150 3 12.4226 -5.44227 8.43594
62 2 16.5983 10.0099 5.24992
174 3 15.9872 10.5287 7.44509
15 1 14.0758 6.091 7.98791
39 2 13.6438 7.94384 5.03289
183 3 13.2498 9.19255 10.9492
77 2 11.373 9.67178 11.8157
137 3 8.56633 -3.29811 13.9208
143 3 11.1423 7.32906 11.5282
273 3 11.1943 9.51586 13.9304
92 2 14.6456 7.64222 11.7298
286 3 8.30355 -0.403593 13.1727
181 3 -6.00836 -4.56345 13.7098
50 2 9.2208 6.13791 14.6586
171 3 9.51933 11.2472 10.7284
117 3 -6.50875 9.59505 15.8574
36 2 6.88921 9.88484 18.4216
204 3 8.4582 -3.58877 19.2658
60 2 10.2991 7.78165 18.4646
229 3 18.3208 -1.57866 -0.787197
124 3 10.3441 8.29579 16.2014
111 3 -7.2779 7.03564 17.2078
200 3 7.26852 -1.12559 15.8068
25 2 12.581 7.84503 15.2073
44 2 9.27744 10.1126 15.0562
70 2 6.72128 6.0529 17.8092
257 3 17.5365 5.80048 -2.13307
ITEM: TIMESTEP
130001
ITEM: NUMBER OF ATOMS
286
ITEM: BOX BOUNDS xy xz yz pp pp pp
-7.6875842777000001e+00 2.0029380798300000e+01 0.0000000000000000e+00
0.0000000000000000e+00 1.1596211433400001e+01 -7.6875842777000001e+00
0.0000000000000000e+00 1.9680415410399998e+01 0.0000000000000000e+00
ITEM: ATOMS id type xu yu zu
159 3 1.56471 4.11669 3.95583
35 2 5.32438 1.85464 1.98382
59 2 2.22567 3.64016 1.87305
220 3 1.89636 0.704517 3.54431
213 3 -0.886262 2.18767 3.76863
210 3 -6.57647 13.3579 20.9074
226 3 3.8016 14.3965 3.14151
238 3 4.26473 3.03143 0.353739
69 2 5.43862 5.77997 1.81478
144 3 3.41723 5.74002 2.64644
258 3 -3.7165 0.100672 21.1989
233 3 -0.553192 -6.1007 3.59865
49 2 2.93221 5.74928 4.70028
26 2 -0.198218 3.66764 5.34044
241 3 0.810048 2.16221 6.32103
78 2 0.731729 1.92252 8.52778
91 2 -3.01755 3.76341 8.12254
268 3 1.18605 4.4765 8.71401
149 3 -1.61051 2.24738 9.37744
43 2 2.94626 2.2699 5.0595
254 3 3.1974 1.64254 7.96903
172 3 3.83513 4.06114 5.65179
132 3 18.0251 0.138504 5.88031
269 3 -1.14147 5.07121 7.77489
105 2 -0.16204 0.282907 4.96196
175 3 0.989806 5.21186 6.076
14 1 0.471981 5.55568 7.71505
128 3 -0.0100251 11.6165 8.07994
279 3 18.2929 13.2513 14.1099
169 3 0.744584 12.8483 10.9888
73 2 1.34847 3.92345 11.0571
112 3 18.0489 4.48264 12.9279
110 3 4.91626 5.38113 -9.13107
84 2 -1.602 1.85093 12.0411
5 1 -1.86245 5.76097 11.847
188 3 16.2893 2.06828 12.35
185 3 14.9205 4.07179 13.9148
160 3 1.10704 15.3188 13.2071
17 2 -3.86551 5.74524 14.5166
189 3 -2.25704 0.04305 11.3661
7 1 -6.20713 5.79968 17.7219
32 2 -2.73665 3.72187 17.9028
243 3 -2.37031 4.17813 15.7015
40 2 -0.418149 3.77031 15.0839
100 2 -6.39593 2.15514 17.924
256 3 23.2983 2.74691 -2.20827
230 3 -1.51977 1.7861 17.3743
61 2 -4.1882 1.75525 14.8118
52 2 -0.724408 11.614 15.2751
201 3 0.171759 5.77591 15.2143
42 2 2.95516 9.48727 4.52274
199 3 4.50768 7.62315 1.26452
34 2 5.7499 9.54696 1.52655
187 3 1.84017 7.82821 3.65958
58 2 2.42049 7.47658 1.60421
221 3 2.76137 9.65736 2.25801
244 3 -0.859873 -1.83023 4.32223
138 3 1.05437 10.8943 1.0536
4 1 2.3863 11.3953 1.96131
184 3 -0.193122 7.33339 1.58476
260 3 5.02185 9.38864 3.74884
27 2 -0.168225 7.7099 5.32955
90 2 -2.80443 7.63303 8.31062
79 2 1.04768 9.59553 8.46796
274 3 4.29344 7.67585 5.4655
242 3 0.924362 -2.29507 6.19089
45 2 -2.45216 11.5085 8.8504
263 3 -1.11792 -2.36816 8.71221
232 3 0.886461 7.26923 8.0954
194 3 17.6654 7.56669 6.29747
209 3 5.55483 -1.88408 -5.67293
179 3 -4.33327 9.44029 12.6057
81 2 -2.18311 9.23835 11.7855
116 3 0.569356 -0.356594 13.2602
271 3 1.56206 9.85813 10.7794
227 3 -2.88265 7.15705 12.4761
76 2 1.84333 7.70279 11.3357
133 3 -0.338315 6.06571 11.2698
131 3 14.76 -0.0285136 14.0978
37 2 -0.631219 7.96195 14.716
11 1 1.3184 -0.21957 11.7018
245 3 -3.35939 9.21601 9.89314
29 2 -3.16325 7.4175 18.1657
196 3 -1.65675 6.05069 18.2022
120 3 -4.37937 9.56419 18.2302
207 3 0.335202 -2.44139 16.1241
141 3 -1.53707 -2.72421 18.7145
97 2 -6.43657 9.797 18.3285
64 2 -4.10777 9.53304 14.9494
235 3 -2.81849 7.82642 15.9401
165 3 14.4905 6.29105 19.3254
145 3 -3.0935 11.3382 15.9433
250 3 6.87316 -0.40263 -1.62322
72 2 -2.91279 11.4793 18.3
211 3 14.1065 11.5955 17.5698
167 3 2.5416 5.93776 -3.339
122 3 6.35006 3.7276 2.40533
103 2 8.8068 3.98688 1.5958
54 2 12.0927 1.6802 1.51753
180 3 9.42252 3.56974 4.06785
205 3 8.47513 1.41657 1.9009
249 3 3.82427 1.53077 23.3442
248 3 -8.69179 3.9932 1.12084
217 3 9.25843 5.78916 2.87877
2 1 12.0143 5.55544 1.64484
176 3 5.23917 13.1593 4.47686
223 3 4.259 5.55967 23.078
94 2 7.51126 2.36629 8.48576
23 2 10.1072 1.78512 5.31537
173 3 6.26807 3.87278 7.27339
282 3 8.5847 15.8595 8.86084
87 2 4.15918 3.99942 8.14134
234 3 5.73812 15.1151 9.60852
114 3 7.8735 1.83983 6.09268
6 1 4.14125 0.282252 8.34605
66 2 6.74268 3.95015 4.95097
107 2 10.0312 5.69012 4.98011
191 3 5.80435 0.797245 8.24696
20 2 6.50456 0.336586 5.47179
130 3 8.22137 5.62707 5.79224
16 1 7.54263 0.0568612 11.6497
252 3 23.1818 2.59637 11.0805
168 3 5.93729 4.01177 12.0694
96 2 5.07924 2.23769 11.2548
246 3 4.60396 2.39801 13.6463
21 2 2.63739 1.65008 14.3781
85 2 8.14158 4.24729 11.6694
214 3 7.74077 1.6576 11.1636
68 2 5.70085 3.9912 14.6959
283 3 22.7448 5.54232 11.5568
195 3 5.99654 0.14072 12.6176
125 3 2.91397 0.0735221 12.6301
153 3 3.3299 15.3718 15.7333
156 3 5.45888 3.79695 17.3745
56 2 0.378862 1.51459 18.3852
101 2 3.36424 4.00553 17.8511
266 3 0.1521 4.15482 18.4509
222 3 1.00312 1.66316 16.3285
1 1 -0.045936 5.77879 18.6357
231 3 3.14977 1.38598 18.8735
215 3 3.5998 0.0303577 16.3467
19 2 5.65407 0.293876 14.9912
236 3 11.064 6.7722 0.789095
212 3 10.1862 -0.804833 2.75636
261 3 9.03449 -3.69362 4.18752
102 2 9.1035 7.75464 1.99322
55 2 12.4489 9.52185 2.07037
123 3 6.80367 7.89543 2.2537
265 3 8.16287 -1.5357 0.925655
148 3 5.61976 5.94063 4.05033
193 3 -0.462853 -0.135113 23.101
67 2 6.38559 7.78906 4.83078
10 1 8.42343 11.2871 2.20799
22 2 9.87832 9.84818 4.81398
203 3 0.0224299 5.9354 20.2983
47 2 7.40896 5.80465 7.96633
272 3 7.62466 9.89958 5.67503
86 2 4.00927 7.81359 7.67141
126 3 9.96185 6.1684 7.4024
95 2 7.33516 9.89647 8.05723
115 3 8.88776 8.55495 9.05479
152 3 4.88215 5.89988 8.31902
239 3 5.96932 8.37443 7.74876
208 3 10.8094 8.479 6.07076
276 3 9.42933 -0.249624 7.79269
166 3 3.97767 -0.640313 7.02554
177 3 1.41551 7.73528 13.7413
219 3 3.3292 8.43835 12.6776
206 3 3.99428 8.32525 10.2533
275 3 6.3006 -3.51421 12.2681
93 2 4.7737 9.94439 11.594
48 2 4.99974 6.26694 11.5636
157 3 5.12122 -1.77385 13.9412
88 2 8.24508 7.98067 11.4126
186 3 -5.52459 10.7496 -9.37004
129 3 5.12355 6.14018 13.8948
24 2 2.84864 9.52287 14.5688
65 2 6.47456 8.07368 14.422
151 3 7.0387 6.65975 10.198
108 2 2.69383 5.97505 14.3226
140 3 8.26806 6.24767 12.7233
154 3 3.89286 -0.299123 9.93131
9 1 3.61351 -0.0868201 18.2738
197 3 5.72099 8.23375 17.4719
53 2 0.605646 9.2237 18.3607
104 2 3.57901 7.75398 17.7496
262 3 3.50063 7.65991 15.4203
228 3 10.2865 -1.08578 -0.741756
170 3 12.1187 5.90775 -2.1225
113 3 1.4095 6.71248 17.8344
121 3 5.15302 10.9584 18.6894
147 3 7.01439 6.2419 15.6002
30 2 15.1779 3.67075 1.25386
135 3 15.229 4.71129 3.94903
198 3 -0.344969 -6.8632 0.610269
98 2 19.1688 1.84279 1.54538
192 3 5.85492 14.6664 22.1513
38 2 13.2903 3.80922 4.63847
253 3 8.76631 2.24105 21.7376
71 2 15.9254 11.6441 1.65188
163 3 14.2251 1.86508 0.410064
158 3 -2.60417 5.73806 1.70449
75 2 10.8412 4.43778 8.271
224 3 14.9298 5.03371 9.00301
82 2 13.6865 1.75428 7.9075
278 3 -2.8877 3.73137 5.89717
264 3 14.4383 13.6413 5.14426
63 2 16.5773 1.94418 5.06013
280 3 15.9802 13.4278 7.60494
164 3 -5.79622 5.62035 6.217
190 3 11.2344 13.1813 9.4242
12 1 10.35 11.6712 9.19443
285 3 11.2545 3.38432 6.20023
267 3 14.1137 11.8121 9.51578
218 3 5.40388 0.182359 26.6768
89 2 14.8945 4.04628 11.4877
251 3 -8.83624 5.73979 13.6122
270 3 10.7956 4.43969 11.167
80 2 11.5725 1.84382 11.7787
139 3 13.5914 2.57953 10.853
240 3 -8.13762 2.63035 13.8053
13 1 11.5564 5.79994 11.9812
162 3 13.1983 5.38374 11.8191
46 2 14.8854 0.0562311 11.572
284 3 8.85627 4.08259 13.6562
127 3 12.7763 0.0184287 12.2388
259 3 8.14202 3.21408 18.7027
161 3 -6.9755 4.31126 17.6165
106 2 12.661 0.00500474 14.9236
57 2 10.2554 3.82189 18.134
178 3 19.0464 1.04771 -0.834327
119 3 18.1705 3.54489 -3.60177
28 2 12.7833 4.19832 14.793
33 2 6.57736 2.01342 17.8451
41 2 9.40682 2.198 14.8123
277 3 13.5769 2.15585 15.8459
225 3 8.43005 0.116998 18.873
247 3 10.3362 11.8297 16.6909
3 1 10.1186 11.6288 18.3883
281 3 7.33917 1.96848 15.578
51 2 13.3849 11.5684 4.36284
31 2 15.3525 7.79309 1.93487
118 3 16.9838 9.12154 2.11147
202 3 14.123 9.10568 0.695912
155 3 12.02 9.08393 4.29399
182 3 14.2471 9.3038 3.2904
99 2 19.1195 9.73793 1.95964
109 3 15.7056 7.77791 4.27466
142 3 13.2127 -0.0756683 2.2583
216 3 13.5053 5.92899 0.721708
18 2 16.6482 5.9703 4.49065
146 3 15.5941 11.4654 3.9797
237 3 10.3989 11.5568 21.5379
8 1 19.092 5.81121 1.81922
255 3 -5.64695 9.78125 6.10479
134 3 11.3557 10.2468 9.23538
136 3 -5.26056 7.59484 8.30812
83 2 13.7875 10.0556 8.31075
74 2 10.7891 8.15495 8.14007
150 3 12.3729 -5.46417 8.4174
62 2 16.6004 10.0045 5.25059
174 3 15.9868 10.5248 7.43652
15 1 14.0802 6.10167 7.99681
39 2 13.6483 7.94113 5.03367
183 3 13.2569 9.19056 10.9141
77 2 11.3757 9.67203 11.8175
137 3 8.58014 -3.24108 13.9258
143 3 11.126 7.33443 11.5383
273 3 11.2021 9.51743 13.902
92 2 14.6503 7.64356 11.7385
286 3 8.29273 -0.406751 13.1771
181 3 -6.00798 -4.54317 13.7059
50 2 9.22192 6.12958 14.6562
171 3 9.51772 11.2521 10.7043
117 3 -6.51119 9.59345 15.8777
36 2 6.88933 9.87697 18.4204
204 3 8.45116 -3.58953 19.2551
60 2 10.3015 7.78181 18.4697
229 3 18.3363 -1.56845 -0.7779
124 3 10.3332 8.32513 16.1998
111 3 -7.28809 7.02836 17.2074
200 3 7.27012 -1.10938 15.7863
25 2 12.5924 7.8479 15.1969
44 2 9.27195 10.1018 15.0522
70 2 6.71223 6.05769 17.8126
257 3 17.4866 5.81215 -2.14435
ITEM: TIMESTEP
130002
ITEM: NUMBER OF ATOMS
286
ITEM: BOX BOUNDS xy xz yz pp pp pp
-7.6875842777000001e+00 2.0029380798300000e+01 0.0000000000000000e+00
0.0000000000000000e+00 1.1596211433400001e+01 -7.6875842777000001e+00
0.0000000000000000e+00 1.9680415410399998e+01 0.0000000000000000e+00
ITEM: ATOMS id type xu yu zu
159 3 1.57222 4.10948 3.93576
35 2 5.31948 1.85958 1.97993
59 2 2.22555 3.63677 1.87256
220 3 1.88089 0.676518 3.52721
213 3 -0.871458 2.19059 3.74916
210 3 -6.57266 13.384 20.8921
226 3 3.80759 14.402 3.14107
238 3 4.24726 3.02408 0.3683
69 2 5.43461 5.78117 1.80901
144 3 3.41187 5.75564 2.63823
258 3 -3.69573 0.104199 21.2042
233 3 -0.545795 -6.08262 3.60736
49 2 2.92513 5.74501 4.70097
26 2 -0.199816 3.66677 5.34291
241 3 0.805182 2.16705 6.32909
78 2 0.731707 1.92385 8.5254
91 2 -3.02131 3.77066 8.12019
268 3 1.22029 4.49081 8.72129
149 3 -1.62158 2.23882 9.38942
43 2 2.93889 2.27318 5.0565
254 3 3.20357 1.62466 7.98496
172 3 3.83917 4.0408 5.6441
132 3 18.0385 0.146311 5.86254
269 3 -1.15772 5.07144 7.78283
105 2 -0.16913 0.290251 4.95995
175 3 0.968171 5.20221 6.09101
14 1 0.497617 5.54882 7.70658
128 3 -0.017411 11.6248 8.08948
279 3 18.3101 13.2264 14.0833
169 3 0.766398 12.8507 11.002
73 2 1.33905 3.92205 11.0587
112 3 18.0381 4.48428 12.949
110 3 4.93103 5.37797 -9.09766
84 2 -1.60021 1.85744 12.0433
5 1 -1.8599 5.76808 11.8337
188 3 16.2908 2.05205 12.3507
185 3 14.9088 4.04705 13.9139
160 3 1.09371 15.3183 13.2149
17 2 -3.86469 5.74053 14.513
189 3 -2.24736 0.0441096 11.391
7 1 -6.20826 5.81253 17.7341
32 2 -2.72884 3.71863 17.902
243 3 -2.38625 4.17646 15.7092
40 2 -0.413999 3.76936 15.0873
100 2 -6.38403 2.15465 17.9198
256 3 23.3385 2.74637 -2.21256
230 3 -1.51885 1.79642 17.3697
61 2 -4.19568 1.75468 14.8133
52 2 -0.727242 11.6154 15.2767
201 3 0.189104 5.76907 15.2235
42 2 2.96098 9.47955 4.52695
199 3 4.50828 7.62199 1.24525
34 2 5.74963 9.55429 1.52234
187 3 1.8608 7.82136 3.64896
58 2 2.42364 7.47533 1.60869
221 3 2.7842 9.68226 2.27581
244 3 -0.865116 -1.83362 4.30692
138 3 1.06942 10.8708 1.05869
4 1 2.38826 11.389 1.9735
184 3 -0.207259 7.36439 1.57934
260 3 5.03232 9.39173 3.74232
27 2 -0.167172 7.70641 5.32751
90 2 -2.80107 7.63683 8.31218
79 2 1.04685 9.59389 8.46977
274 3 4.30092 7.67526 5.47546
242 3 0.964063 -2.30971 6.18626
45 2 -2.45262 11.5196 8.85698
263 3 -1.13079 -2.355 8.71727
232 3 0.896312 7.2838 8.08436
194 3 17.6831 7.57448 6.3256
209 3 5.56 -1.89269 -5.65679
179 3 -4.31306 9.45329 12.5885
81 2 -2.17169 9.23686 11.7936
116 3 0.580314 -0.383497 13.2529
271 3 1.57794 9.85717 10.7689
227 3 -2.90858 7.1769 12.4825
76 2 1.84014 7.70019 11.3374
133 3 -0.327422 6.05722 11.2533
131 3 14.7786 -0.0194303 14.1146
37 2 -0.625801 7.96479 14.7204
11 1 1.31158 -0.209712 11.6953
245 3 -3.34055 9.20951 9.90019
29 2 -3.17063 7.42101 18.1541
196 3 -1.68411 6.05105 18.1952
120 3 -4.37557 9.55796 18.2373
207 3 0.335274 -2.43893 16.1443
141 3 -1.54388 -2.73597 18.6965
97 2 -6.43271 9.8022 18.3255
64 2 -4.10263 9.53962 14.9464
235 3 -2.8073 7.85293 15.9452
165 3 14.5053 6.30236 19.3457
145 3 -3.10472 11.3307 15.9359
250 3 6.90123 -0.407572 -1.61746
72 2 -2.91368 11.4814 18.2976
211 3 14.1064 11.6038 17.5921
167 3 2.51236 5.95062 -3.32546
122 3 6.36879 3.75349 2.41377
103 2 8.80555 3.9796 1.60005
54 2 12.0918 1.67938 1.51156
180 3 9.3972 3.54099 4.05055
205 3 8.47625 1.40553 1.91394
249 3 3.80728 1.49183 23.3559
248 3 -8.68123 4.00087 1.10741
217 3 9.30079 5.78426 2.9105
2 1 12.0243 5.55447 1.6302
176 3 5.25738 13.179 4.46273
223 3 4.27424 5.56653 23.0591
94 2 7.51123 2.36883 8.49242
23 2 10.1012 1.78902 5.31565
173 3 6.25734 3.86315 7.26894
282 3 8.55533 15.8563 8.85169
87 2 4.16323 4.00859 8.13745
234 3 5.72019 15.1302 9.58423
114 3 7.84697 1.84746 6.1038
6 1 4.15025 0.287549 8.34873
66 2 6.73102 3.94314 4.94988
107 2 10.0229 5.68932 4.97701
191 3 5.78485 0.816389 8.22073
20 2 6.50171 0.342433 5.47224
130 3 8.207 5.62938 5.80912
16 1 7.54633 0.0456884 11.6382
252 3 23.1733 2.5831 11.0477
168 3 5.94395 3.96611 12.0721
96 2 5.07376 2.24412 11.2538
246 3 4.57187 2.42477 13.6319
21 2 2.6319 1.64941 14.3805
85 2 8.13436 4.24198 11.6805
214 3 7.7498 1.65547 11.158
68 2 5.70176 3.99 14.6968
283 3 22.7344 5.52855 11.5643
195 3 6.01535 0.171039 12.6339
125 3 2.88228 0.0719067 12.6003
153 3 3.3336 15.3984 15.7364
156 3 5.45961 3.79387 17.3708
56 2 0.381922 1.51206 18.389
101 2 3.36549 3.99925 17.8608
266 3 0.130692 4.14914 18.4833
222 3 0.99537 1.649 16.3254
1 1 -0.033635 5.78106 18.6229
231 3 3.14789 1.4024 18.8505
215 3 3.5945 0.0141305 16.3537
19 2 5.64569 0.304246 15.0002
236 3 11.0394 6.77779 0.795347
212 3 10.2143 -0.791378 2.73195
261 3 9.02692 -3.68079 4.19461
102 2 9.10926 7.76036 1.99862
55 2 12.4556 9.51397 2.06771
123 3 6.78261 7.90678 2.27327
265 3 8.1434 -1.54924 0.938692
148 3 5.64384 5.93634 4.03821
193 3 -0.445576 -0.147286 23.0745
67 2 6.38312 7.78386 4.82896
10 1 8.42206 11.2887 2.20871
22 2 9.8791 9.83993 4.8146
203 3 0.0377671 5.95995 20.3123
47 2 7.41199 5.80487 7.96713
272 3 7.59409 9.90251 5.68744
86 2 4.01402 7.81775 7.6715
126 3 10.0007 6.15972 7.37503
95 2 7.33602 9.89646 8.05394
115 3 8.90157 8.52214 9.06844
152 3 4.88783 5.90285 8.33801
239 3 5.95425 8.37206 7.75499
208 3 10.8142 8.47338 6.05417
276 3 9.4461 -0.251292 7.76721
166 3 3.99326 -0.646474 6.9686
177 3 1.38274 7.73455 13.7392
219 3 3.35114 8.44232 12.6676
206 3 4.00117 8.3399 10.2383
275 3 6.33025 -3.53055 12.2458
93 2 4.77712 9.93684 11.5942
48 2 4.99413 6.26624 11.5625
157 3 5.08367 -1.77063 13.9403
88 2 8.24586 7.97457 11.4078
186 3 -5.50676 10.735 -9.36725
129 3 5.12607 6.14284 13.864
24 2 2.83972 9.51494 14.5677
65 2 6.47554 8.07757 14.4135
151 3 7.02622 6.65615 10.1902
108 2 2.69352 5.97307 14.3308
140 3 8.26814 6.2418 12.7169
154 3 3.8931 -0.285273 9.93871
9 1 3.61146 -0.0862941 18.2902
197 3 5.70391 8.25105 17.4677
53 2 0.608422 9.21678 18.3534
104 2 3.57954 7.75443 17.7529
262 3 3.49243 7.68171 15.4452
228 3 10.298 -1.06972 -0.751265
170 3 12.0811 5.88855 -2.09403
113 3 1.39702 6.68264 17.8159
121 3 5.17105 10.9733 18.6992
147 3 7.01002 6.23473 15.5818
30 2 15.1829 3.67476 1.25586
135 3 15.2397 4.72336 3.9285
198 3 -0.356687 -6.89012 0.622222
98 2 19.1653 1.85075 1.54092
192 3 5.84707 14.6246 22.1642
38 2 13.29 3.81762 4.6336
253 3 8.76632 2.2511 21.7316
71 2 15.9217 11.6407 1.65244
163 3 14.2123 1.91437 0.421448
158 3 -2.62946 5.72032 1.68733
75 2 10.84 4.43429 8.27376
224 3 14.9345 5.02753 8.98332
82 2 13.6815 1.75677 7.90844
278 3 -2.90823 3.72642 5.93888
264 3 14.4599 13.6529 5.10817
63 2 16.5763 1.94139 5.05677
280 3 15.9666 13.4326 7.65123
164 3 -5.78089 5.61442 6.21778
190 3 11.2008 13.1834 9.41339
12 1 10.3504 11.6522 9.1914
285 3 11.2645 3.38162 6.21637
267 3 14.1198 11.827 9.52455
218 3 5.41561 0.155986 26.659
89 2 14.8972 4.05045 11.4936
251 3 -8.83632 5.74943 13.6261
270 3 10.774 4.42697 11.1938
80 2 11.5759 1.837 11.7831
139 3 13.6092 2.58288 10.8681
240 3 -8.11734 2.62482 13.8059
13 1 11.5528 5.81282 11.9774
162 3 13.1948 5.39249 11.8136
46 2 14.879 0.04938 11.5707
284 3 8.88379 4.07523 13.6627
127 3 12.7752 0.0353383 12.2419
259 3 8.12455 3.20745 18.719
161 3 -6.97988 4.31708 17.6359
106 2 12.6582 -0.00417155 14.9239
57 2 10.2564 3.83269 18.1336
178 3 19.0342 1.03112 -0.828669
119 3 18.1972 3.54512 -3.58675
28 2 12.7835 4.20007 14.7954
33 2 6.58247 2.013 17.8414
41 2 9.41062 2.18992 14.8092
277 3 13.5705 2.17557 15.8773
225 3 8.41994 0.111758 18.8664
247 3 10.3274 11.8246 16.714
3 1 10.1327 11.636 18.379
281 3 7.34848 1.97016 15.5634
51 2 13.3878 11.5743 4.35874
31 2 15.3571 7.79469 1.9446
118 3 16.9969 9.12892 2.09875
202 3 14.0931 9.1005 0.69702
155 3 12.0252 9.1031 4.26122
182 3 14.2584 9.3403 3.31679
99 2 19.1185 9.73312 1.96265
109 3 15.7006 7.74296 4.26931
142 3 13.2303 -0.0808778 2.23775
216 3 13.5066 5.90418 0.745222
18 2 16.6432 5.97277 4.49415
146 3 15.5708 11.4764 3.95678
237 3 10.3793 11.5786 21.5261
8 1 19.095 5.81633 1.81188
255 3 -5.63879 9.79447 6.08504
134 3 11.3656 10.2518 9.22607
136 3 -5.24858 7.59816 8.2927
83 2 13.7952 10.0571 8.30457
74 2 10.7889 8.15021 8.1403
150 3 12.3252 -5.48649 8.39956
62 2 16.6026 9.999 5.2515
174 3 15.99 10.5216 7.43156
15 1 14.0839 6.11083 8.00398
39 2 13.6528 7.93857 5.0347
183 3 13.2672 9.18654 10.8814
77 2 11.3784 9.67237 11.819
137 3 8.59581 -3.18378 13.9314
143 3 11.1078 7.34524 11.5454
273 3 11.214 9.51987 13.8755
92 2 14.6549 7.64517 11.7471
286 3 8.28443 -0.409904 13.1806
181 3 -6.00419 -4.52197 13.702
50 2 9.22297 6.12134 14.654
171 3 9.51607 11.2597 10.6785
117 3 -6.51411 9.5944 15.8992
36 2 6.8898 9.86868 18.4189
204 3 8.44016 -3.59052 19.2433
60 2 10.3041 7.78179 18.4746
229 3 18.3524 -1.55615 -0.768915
124 3 10.3211 8.35435 16.2014
111 3 -7.29934 7.02126 17.2102
200 3 7.26773 -1.09284 15.7675
25 2 12.6035 7.85081 15.1863
44 2 9.26656 10.0909 15.0482
70 2 6.70312 6.06265 17.8159
257 3 17.4353 5.82263 -2.1545
ITEM: TIMESTEP
130003
ITEM: NUMBER OF ATOMS
286
ITEM: BOX BOUNDS xy xz yz pp pp pp
-7.6875842777000001e+00 2.0029380798300000e+01 0.0000000000000000e+00
0.0000000000000000e+00 1.1596211433400001e+01 -7.6875842777000001e+00
0.0000000000000000e+00 1.9680415410399998e+01 0.0000000000000000e+00
ITEM: ATOMS id type xu yu zu
159 3 1.58005 4.09778 3.91714
35 2 5.31478 1.86472 1.97604
59 2 2.22554 3.63338 1.87185
220 3 1.86775 0.64402 3.5069
213 3 -0.855915 2.19036 3.73027
210 3 -6.56177 13.4098 20.8773
226 3 3.80994 14.4095 3.13711
238 3 4.22982 3.01655 0.385
69 2 5.43088 5.78221 1.80335
144 3 3.4044 5.76887 2.62721
258 3 -3.67414 0.108571 21.2058
233 3 -0.540866 -6.06368 3.61173
49 2 2.91813 5.74093 4.70179
26 2 -0.202117 3.66608 5.3447
241 3 0.801244 2.16916 6.33851
78 2 0.731557 1.92505 8.52316
91 2 -3.02507 3.77771 8.11807
268 3 1.25974 4.50159 8.73119
149 3 -1.63209 2.23135 9.39811
43 2 2.93176 2.27607 5.05338
254 3 3.20488 1.61092 8.00048
172 3 3.84659 4.02223 5.63947
132 3 18.0475 0.156015 5.84698
269 3 -1.17298 5.07344 7.79038
105 2 -0.176027 0.297391 4.95792
175 3 0.951462 5.19762 6.10718
14 1 0.522013 5.54512 7.69932
128 3 -0.0244762 11.6316 8.0996
279 3 18.3284 13.1994 14.0626
169 3 0.787975 12.8524 11.0136
73 2 1.32979 3.92061 11.0608
112 3 18.0278 4.4848 12.9729
110 3 4.93936 5.3712 -9.07421
84 2 -1.59846 1.86433 12.0451
5 1 -1.85742 5.77626 11.8228
188 3 16.2885 2.03664 12.3518
185 3 14.8957 4.02146 13.9121
160 3 1.08118 15.3153 13.225
17 2 -3.86371 5.73582 14.5095
189 3 -2.23855 0.038052 11.4135
7 1 -6.20873 5.82647 17.7476
32 2 -2.72065 3.71531 17.9013
243 3 -2.40697 4.17684 15.7165
40 2 -0.40967 3.76835 15.0906
100 2 -6.37202 2.15401 17.9159
256 3 23.3741 2.74213 -2.22002
230 3 -1.52073 1.80931 17.3667
61 2 -4.20296 1.75421 14.8148
52 2 -0.730267 11.6169 15.2785
201 3 0.20751 5.76399 15.2329
42 2 2.96702 9.47186 4.53129
199 3 4.50907 7.62619 1.22253
34 2 5.74916 9.56145 1.51824
187 3 1.87977 7.81335 3.64432
58 2 2.42648 7.47419 1.61303
221 3 2.80786 9.70926 2.29504
244 3 -0.869679 -1.83918 4.28821
138 3 1.08195 10.8474 1.05886
4 1 2.38891 11.3833 1.98761
184 3 -0.222208 7.39645 1.57238
260 3 5.04429 9.39437 3.73513
27 2 -0.166241 7.70321 5.32531
90 2 -2.79756 7.64086 8.31427
79 2 1.04562 9.59231 8.47128
274 3 4.30423 7.67572 5.48786
242 3 1.00546 -2.32351 6.18273
45 2 -2.45308 11.5306 8.86339
263 3 -1.14179 -2.34189 8.72138
232 3 0.905236 7.29259 8.07231
194 3 17.7024 7.58369 6.34916
209 3 5.56852 -1.89916 -5.6409
179 3 -4.29325 9.4655 12.5697
81 2 -2.16039 9.23563 11.8016
116 3 0.587988 -0.411241 13.2454
271 3 1.59084 9.86042 10.7602
227 3 -2.93318 7.19531 12.4892
76 2 1.83705 7.69744 11.3392
133 3 -0.31122 6.05009 11.2359
131 3 14.7949 -0.00988782 14.1321
37 2 -0.620512 7.96731 14.7248
11 1 1.30693 -0.199911 11.6907
245 3 -3.32333 9.20316 9.90881
29 2 -3.1783 7.42518 18.1424
196 3 -1.70788 6.04938 18.1875
120 3 -4.36889 9.55066 18.2452
207 3 0.336454 -2.43432 16.1645
141 3 -1.55227 -2.74945 18.6797
97 2 -6.42896 9.80734 18.3226
64 2 -4.09738 9.54628 14.9435
235 3 -2.79648 7.87768 15.9516
165 3 14.5197 6.31064 19.3599
145 3 -3.11483 11.3241 15.9314
250 3 6.93473 -0.414299 -1.61122
72 2 -2.91473 11.4836 18.2947
211 3 14.1061 11.615 17.6129
167 3 2.48584 5.96228 -3.31194
122 3 6.39291 3.77969 2.42301
103 2 8.8043 3.97232 1.60479
54 2 12.0911 1.67872 1.50568
180 3 9.37034 3.51055 4.03402
205 3 8.47856 1.3923 1.92324