LAMMPS data file. CGCMM style. atom_style charge generated by VMD/TopoTools v1.7 on Mon Oct 07 20:29:18 +0900 2024
 16150 atoms
 0 bonds
 0 angles
 0 dihedrals
 0 impropers
 6 atom types
 0 bond types
 0 angle types
 0 dihedral types
 0 improper types
 0 59.6  xlo xhi
 0 59.6  ylo yhi
 0 59.6  zlo zhi

# Pair Coeffs
#
# 1  AL
# 2  CA
# 3  FE
# 4  MG
# 5  O
# 6  SI

 Masses

 1 26.981539 # AL
 2 40.077999 # CA
 3 55.845001 # FE
 4 24.305000 # MG
 5 15.999400 # O
 6 28.085501 # SI

 Atoms # charge

1 5 0.000000 36.391998 10.794000 53.695999 # O
2 2 0.000000 35.241001 12.366000 54.301998 # CA
3 5 0.000000 27.948999 18.929001 5.847000 # O
4 2 0.000000 27.826000 19.517000 7.797000 # CA
5 5 0.000000 13.952000 1.130000 11.046000 # O
6 2 0.000000 13.652000 3.132000 11.291000 # CA
7 5 0.000000 10.733000 15.549000 31.504000 # O
8 2 0.000000 9.222000 15.773000 30.152000 # CA
9 5 0.000000 55.712002 41.056999 6.133000 # O
10 2 0.000000 53.993000 39.959000 6.109000 # CA
11 5 0.000000 24.363001 7.531000 23.065001 # O
12 2 0.000000 24.233000 6.428000 21.354000 # CA
13 5 0.000000 52.720001 8.728000 51.051998 # O
14 2 0.000000 51.235001 7.387000 50.653999 # CA
15 5 0.000000 29.013000 46.424000 31.143000 # O
16 2 0.000000 29.645000 44.536999 31.593000 # CA
17 5 0.000000 42.994999 23.881001 27.892000 # O
18 2 0.000000 44.681000 23.032000 27.118000 # CA
19 5 0.000000 26.943001 53.056000 24.103001 # O
20 2 0.000000 26.171000 54.133999 22.552999 # CA
21 5 0.000000 12.339000 49.484001 11.853000 # O
22 2 0.000000 12.738000 47.862000 10.682000 # CA
23 5 0.000000 57.508999 3.836000 2.220000 # O
24 2 0.000000 56.006001 5.198000 2.004000 # CA
25 5 0.000000 36.043999 4.861000 50.428001 # O
26 2 0.000000 34.167999 4.267000 49.891998 # CA
27 5 0.000000 8.769000 14.803000 25.389999 # O
28 2 0.000000 7.650000 13.612000 24.169001 # CA
29 5 0.000000 25.770000 11.320000 2.898000 # O
30 2 0.000000 25.368999 11.036000 4.878000 # CA
31 5 0.000000 13.478000 3.360000 43.639999 # O
32 2 0.000000 12.253000 4.897000 43.094002 # CA
33 5 0.000000 27.802999 30.076000 37.841000 # O
34 2 0.000000 26.635000 31.743999 37.959000 # CA
35 5 0.000000 57.014000 54.912998 47.416000 # O
36 2 0.000000 55.637001 53.410000 47.514999 # CA
37 5 0.000000 41.261002 36.271999 52.205002 # O
38 2 0.000000 40.422001 37.950001 51.403999 # CA
39 5 0.000000 4.214000 1.969000 4.621000 # O
40 2 0.000000 4.133000 3.727000 3.589000 # CA
41 5 0.000000 19.336000 34.018002 54.876999 # O
42 2 0.000000 18.719999 35.520000 53.640999 # CA
43 5 0.000000 58.602001 39.205002 46.912998 # O
44 2 0.000000 58.612000 41.029999 47.824001 # CA
45 5 0.000000 53.612999 40.191002 54.351002 # O
46 2 0.000000 52.964001 41.798000 53.275002 # CA
47 5 0.000000 51.282001 43.008999 25.731001 # O
48 2 0.000000 50.976002 41.001999 25.524000 # CA
49 5 0.000000 58.238998 49.169998 12.432000 # O
50 2 0.000000 58.601002 47.195000 12.069000 # CA
51 5 0.000000 1.000000 32.340000 34.702999 # O
52 2 0.000000 0.999000 31.171000 33.030998 # CA
53 5 0.000000 53.043999 29.906000 14.406000 # O
54 2 0.000000 53.820999 30.910999 16.002001 # CA
55 5 0.000000 14.208000 18.291000 24.319000 # O
56 2 0.000000 13.796000 18.944000 22.431000 # CA
57 5 0.000000 44.785000 5.493000 26.150000 # O
58 2 0.000000 45.127998 4.555000 24.370001 # CA
59 5 0.000000 53.905998 16.861000 43.109001 # O
60 2 0.000000 52.299999 16.076000 42.125999 # CA
61 5 0.000000 20.620001 28.823000 37.766998 # O
62 2 0.000000 22.110001 30.198000 37.993000 # CA
63 5 0.000000 42.719002 27.219999 19.105000 # O
64 2 0.000000 41.653999 26.032000 20.375999 # CA
65 5 0.000000 3.185000 4.599000 19.795000 # O
66 2 0.000000 1.208000 4.156000 19.552000 # CA
67 5 0.000000 20.473000 12.817000 1.899000 # O
68 2 0.000000 21.589001 14.455000 1.412000 # CA
69 5 0.000000 41.276001 41.019001 20.398001 # O
70 2 0.000000 42.480999 39.821999 21.528000 # CA
71 5 0.000000 12.859000 43.612000 23.566000 # O
72 2 0.000000 14.762000 42.875999 23.576000 # CA
73 5 0.000000 23.308001 28.375000 10.282000 # O
74 2 0.000000 25.108999 29.139999 9.706000 # CA
75 5 0.000000 51.483002 12.656000 47.026001 # O
76 2 0.000000 52.644001 14.331000 46.937000 # CA
77 5 0.000000 18.165001 57.691002 32.716000 # O
78 2 0.000000 17.618999 57.769001 34.680000 # CA
79 5 0.000000 1.262000 56.265999 37.842999 # O
80 2 0.000000 1.090000 57.286999 39.601002 # CA
81 5 0.000000 23.673000 22.851000 24.197001 # O
82 2 0.000000 25.691000 23.150999 24.167000 # CA
83 5 0.000000 57.404999 4.166000 49.840000 # O
84 2 0.000000 57.848999 5.731000 48.609001 # CA
85 5 0.000000 28.245001 26.906000 47.007999 # O
86 2 0.000000 28.971001 27.282000 45.139000 # CA
87 5 0.000000 3.532000 49.820000 19.931999 # O
88 2 0.000000 2.896000 48.030998 19.184999 # CA
89 5 0.000000 46.813999 31.231001 34.374001 # O
90 2 0.000000 47.750999 32.831001 35.224998 # CA
91 5 0.000000 4.738000 6.865000 2.169000 # O
92 2 0.000000 3.370000 7.828000 1.000000 # CA
93 5 0.000000 58.605000 45.674999 30.539000 # O
94 2 0.000000 58.599998 45.581001 28.500999 # CA
95 5 0.000000 50.196999 11.888000 40.877998 # O
96 2 0.000000 49.006001 10.232000 40.861000 # CA
97 5 0.000000 31.080999 16.816000 3.487000 # O
98 2 0.000000 30.409000 16.202999 1.661000 # CA
99 5 0.000000 23.691000 4.573000 22.405001 # O
100 2 0.000000 22.632999 5.054000 20.728001 # CA
101 5 0.000000 27.023001 35.851002 54.074001 # O
102 2 0.000000 27.912001 34.442001 52.896000 # CA
103 5 0.000000 18.009001 34.023998 28.002001 # O
104 2 0.000000 19.844000 33.535000 27.256001 # CA
105 5 0.000000 53.008999 21.510000 21.037001 # O
106 2 0.000000 53.984001 21.743999 22.813000 # CA
107 5 0.000000 21.907000 36.313999 22.164000 # O
108 2 0.000000 23.743999 36.701000 21.365000 # CA
109 5 0.000000 15.727000 57.931999 51.980999 # O
110 2 0.000000 14.581000 56.806999 53.238998 # CA
111 5 0.000000 12.251000 22.368000 10.493000 # O
112 2 0.000000 10.980000 20.964001 9.734000 # CA
113 5 0.000000 55.875999 19.583000 18.988001 # O
114 2 0.000000 57.820000 19.812000 19.562000 # CA
115 5 0.000000 4.830000 21.756001 48.798000 # O
116 2 0.000000 4.298000 22.662001 50.547001 # CA
117 5 0.000000 2.153000 13.288000 15.967000 # O
118 2 0.000000 1.000000 13.234000 14.285000 # CA
119 5 0.000000 11.963000 27.409000 48.844002 # O
120 2 0.000000 13.515000 26.108999 49.097000 # CA
121 5 0.000000 41.248001 7.327000 24.895000 # O
122 2 0.000000 41.706001 5.340000 24.813999 # CA
123 5 0.000000 48.828999 40.602001 25.056999 # O
124 2 0.000000 47.901001 42.266998 24.330000 # CA
125 5 0.000000 39.313999 38.285999 49.533001 # O
126 2 0.000000 40.348999 39.937000 50.139999 # CA
127 5 0.000000 53.717999 10.703000 27.129000 # O
128 2 0.000000 53.084000 8.878000 26.476000 # CA
129 5 0.000000 53.076000 28.650000 3.876000 # O
130 2 0.000000 52.408001 29.174000 5.731000 # CA
131 5 0.000000 45.146999 42.973999 53.452999 # O
132 2 0.000000 44.730999 41.034000 53.930000 # CA
133 5 0.000000 44.424999 7.991000 39.921001 # O
134 2 0.000000 42.966999 6.714000 39.286999 # CA
135 5 0.000000 41.710999 24.066999 43.726002 # O
136 2 0.000000 42.216999 22.128000 43.347000 # CA
137 5 0.000000 39.882999 2.469000 55.963001 # O
138 2 0.000000 41.312000 1.022000 56.123001 # CA
139 5 0.000000 57.039001 52.023998 11.575000 # O
140 2 0.000000 55.823002 52.438000 9.990000 # CA
141 5 0.000000 35.445999 14.967000 49.375999 # O
142 2 0.000000 36.783001 16.473000 49.701000 # CA
143 5 0.000000 2.329000 22.344000 42.318001 # O
144 2 0.000000 4.168000 21.459000 42.342999 # CA
145 5 0.000000 17.676001 57.145000 26.528999 # O
146 2 0.000000 18.731001 55.682999 27.483000 # CA
147 5 0.000000 39.330002 8.330000 28.767000 # O
148 2 0.000000 39.118999 6.332000 28.414000 # CA
149 5 0.000000 50.162998 15.586000 50.395000 # O
150 2 0.000000 50.442001 16.945999 48.901001 # CA
151 5 0.000000 12.578000 31.103001 11.906000 # O
152 2 0.000000 11.479000 29.721001 12.928000 # CA
153 5 0.000000 45.875000 16.905001 6.750000 # O
154 2 0.000000 45.234001 18.784000 6.279000 # CA
155 5 0.000000 37.573002 4.603000 14.297000 # O
156 2 0.000000 36.262001 3.496000 15.401000 # CA
157 5 0.000000 25.476999 24.157000 9.471000 # O
158 2 0.000000 27.443001 23.966000 8.961000 # CA
159 5 0.000000 30.525000 35.435001 10.116000 # O
160 2 0.000000 31.601000 33.706001 9.997000 # CA
161 5 0.000000 39.282001 2.558000 31.679001 # O
162 2 0.000000 40.639000 1.261000 30.879999 # CA
163 5 0.000000 58.450001 58.099998 31.848000 # O
164 2 0.000000 58.599998 57.835999 33.866001 # CA
165 5 0.000000 4.169000 56.854000 31.521000 # O
166 2 0.000000 4.253000 58.457001 32.778999 # CA
167 5 0.000000 52.757000 44.430000 56.660000 # O
168 2 0.000000 53.750000 42.669998 56.938000 # CA
169 5 0.000000 28.750999 1.601000 29.184999 # O
170 2 0.000000 26.746000 1.899000 29.420000 # CA
171 5 0.000000 32.279999 49.191002 28.138000 # O
172 2 0.000000 32.492001 47.402000 27.180000 # CA
173 5 0.000000 45.723999 15.385000 8.333000 # O
174 2 0.000000 45.693001 17.125999 9.398000 # CA
175 5 0.000000 17.032000 23.854000 14.823000 # O
176 2 0.000000 15.248000 23.091000 14.191000 # CA
177 5 0.000000 8.232000 12.826000 28.333000 # O
178 2 0.000000 6.816000 11.364000 28.193001 # CA
179 5 0.000000 41.054001 24.197001 13.515000 # O
180 2 0.000000 42.310001 22.666000 13.025000 # CA
181 5 0.000000 58.590000 13.862000 34.144001 # O
182 2 0.000000 58.470001 13.358000 36.117001 # CA
183 5 0.000000 38.709000 30.516001 11.366000 # O
184 2 0.000000 37.187000 29.165001 11.225000 # CA
185 5 0.000000 30.344999 21.358999 42.035999 # O
186 2 0.000000 28.754999 20.503000 42.985001 # CA
187 5 0.000000 54.932999 31.445999 46.827999 # O
188 2 0.000000 56.257000 30.075001 47.554001 # CA
189 5 0.000000 15.152000 5.231000 41.769001 # O
190 2 0.000000 14.791000 7.164000 41.228001 # CA
191 5 0.000000 48.214001 54.889999 35.002998 # O
192 2 0.000000 47.812000 52.889999 34.977001 # CA
193 5 0.000000 30.496000 16.726999 17.104000 # O
194 2 0.000000 29.268000 16.801001 18.732000 # CA
195 5 0.000000 38.842999 1.000000 19.922001 # O
196 2 0.000000 37.169998 1.902000 19.181000 # CA
197 5 0.000000 25.704000 38.404999 43.521999 # O
198 2 0.000000 26.709999 37.998001 41.794998 # CA
199 5 0.000000 32.198002 19.573000 41.933998 # O
200 2 0.000000 33.706001 18.240999 42.273998 # CA
201 5 0.000000 1.953000 53.662998 46.030998 # O
202 2 0.000000 0.996000 55.060001 44.891998 # CA
203 5 0.000000 16.257000 21.165001 32.925999 # O
204 2 0.000000 17.620001 19.816000 33.623001 # CA
205 5 0.000000 56.577999 19.839001 51.422001 # O
206 2 0.000000 55.039001 21.170000 51.564999 # CA
207 5 0.000000 21.657000 32.845001 35.967999 # O
208 2 0.000000 22.642000 31.059999 36.040001 # CA
209 5 0.000000 5.669000 14.392000 45.603001 # O
210 2 0.000000 4.347000 15.927000 45.367001 # CA
211 5 0.000000 57.298000 37.816002 49.340000 # O
212 2 0.000000 58.599998 39.379002 49.500999 # CA
213 5 0.000000 43.634998 56.139999 37.139000 # O
214 2 0.000000 44.016998 58.144001 37.147999 # CA
215 5 0.000000 28.381001 37.653000 12.143000 # O
216 2 0.000000 27.263000 38.972000 11.059000 # CA
217 5 0.000000 11.317000 22.070999 40.660999 # O
218 2 0.000000 9.422000 21.341000 40.472000 # CA
219 5 0.000000 27.947001 36.131001 40.206001 # O
220 2 0.000000 28.502001 34.812000 41.660000 # CA
221 5 0.000000 42.445999 2.753000 28.271000 # O
222 2 0.000000 41.818001 4.619000 27.739000 # CA
223 5 0.000000 43.662998 47.959000 7.071000 # O
224 2 0.000000 43.147999 47.865002 5.099000 # CA
225 5 0.000000 9.944000 11.610000 40.436001 # O
226 2 0.000000 11.917000 12.038000 40.145000 # CA
227 5 0.000000 22.231001 37.973000 18.983999 # O
228 2 0.000000 22.677000 35.984001 18.906000 # CA
229 5 0.000000 40.132999 19.190001 17.563999 # O
230 2 0.000000 41.478001 17.816999 18.249001 # CA
231 5 0.000000 15.312000 49.507999 49.426998 # O
232 2 0.000000 14.940000 47.555000 49.884998 # CA
233 5 0.000000 27.802999 14.169000 28.985001 # O
234 2 0.000000 28.548000 14.990000 30.698000 # CA
235 5 0.000000 40.263000 54.220001 11.407000 # O
236 2 0.000000 39.055000 55.853001 11.213000 # CA
237 5 0.000000 50.535000 39.423000 53.669998 # O
238 2 0.000000 51.255001 40.737000 52.285000 # CA
239 5 0.000000 16.924999 23.441000 8.927000 # O
240 2 0.000000 16.346001 25.371000 8.607000 # CA
241 5 0.000000 37.257999 47.173000 10.816000 # O
242 2 0.000000 37.874001 48.909000 9.937000 # CA
243 5 0.000000 40.192001 30.193001 35.054001 # O
244 2 0.000000 39.404999 28.350000 35.436001 # CA
245 5 0.000000 53.209999 55.929001 16.908001 # O
246 2 0.000000 54.926998 56.372002 15.898000 # CA
247 5 0.000000 40.008999 42.418999 38.794998 # O
248 2 0.000000 40.777000 40.528999 38.849998 # CA
249 5 0.000000 52.410000 25.403000 51.187000 # O
250 2 0.000000 53.199001 26.288000 52.847000 # CA
251 5 0.000000 32.738998 5.336000 13.033000 # O
252 2 0.000000 34.700001 5.686000 13.476000 # CA
253 5 0.000000 22.125999 32.066002 45.887001 # O
254 2 0.000000 23.527000 30.603001 46.134998 # CA
255 5 0.000000 18.816000 9.711000 37.153000 # O
256 2 0.000000 18.381001 9.020000 35.283001 # CA
257 5 0.000000 17.672001 56.653999 48.400002 # O
258 2 0.000000 17.670000 55.292000 49.918999 # CA
259 5 0.000000 36.452999 22.497999 8.042000 # O
260 2 0.000000 35.222000 23.631001 6.875000 # CA
261 5 0.000000 22.827999 16.971001 19.995001 # O
262 2 0.000000 23.583000 15.077000 20.044001 # CA
263 5 0.000000 25.652000 33.943001 32.882999 # O
264 2 0.000000 23.615999 33.851002 32.969002 # CA
265 5 0.000000 9.056000 47.172001 55.882999 # O
266 2 0.000000 7.024000 47.096001 55.720001 # CA
267 5 0.000000 11.492000 55.958000 27.306000 # O
268 2 0.000000 9.804000 55.090000 26.556999 # CA
269 5 0.000000 11.087000 58.601002 55.676998 # O
270 2 0.000000 12.903000 58.595001 56.606998 # CA
271 5 0.000000 9.367000 21.599001 11.098000 # O
272 2 0.000000 9.259000 22.215000 9.157000 # CA
273 5 0.000000 18.940001 8.440000 33.194000 # O
274 2 0.000000 17.899000 10.188000 33.347000 # CA
275 5 0.000000 1.137000 25.615000 33.535000 # O
276 2 0.000000 1.000000 23.634001 33.068001 # CA
277 5 0.000000 30.486000 2.908000 2.699000 # O
278 2 0.000000 29.091000 3.368000 1.282000 # CA
279 5 0.000000 17.124001 2.452000 53.375000 # O
280 2 0.000000 19.145000 2.381000 53.650002 # CA
281 5 0.000000 19.517000 26.718000 24.511000 # O
282 2 0.000000 19.046000 28.048000 23.039000 # CA
283 5 0.000000 42.220001 33.495998 2.239000 # O
284 2 0.000000 42.923000 35.353001 2.706000 # CA
285 5 0.000000 54.974998 48.422001 33.992001 # O
286 2 0.000000 53.813999 47.556000 32.555000 # CA
287 5 0.000000 1.159000 56.404999 7.765000 # O
288 2 0.000000 3.193000 56.284000 7.670000 # CA
289 5 0.000000 50.643002 32.257000 10.665000 # O
290 2 0.000000 48.818001 32.125000 9.762000 # CA
291 5 0.000000 52.591999 41.683998 26.896000 # O
292 2 0.000000 53.952000 41.042999 25.518000 # CA
293 5 0.000000 37.964001 38.104000 10.769000 # O
294 2 0.000000 35.923000 38.113998 10.774000 # CA
295 5 0.000000 56.551998 9.037000 19.283001 # O
296 2 0.000000 58.570999 9.174000 19.540001 # CA
297 5 0.000000 41.227001 15.521000 18.465000 # O
298 2 0.000000 41.332001 14.605000 20.285000 # CA
299 5 0.000000 16.136999 4.863000 1.420000 # O
300 2 0.000000 15.301000 3.882000 3.002000 # CA
301 5 0.000000 31.382999 24.721001 34.700001 # O
302 2 0.000000 30.434999 23.337000 35.860001 # CA
303 5 0.000000 33.372002 3.548000 57.854000 # O
304 2 0.000000 34.749001 5.019000 58.172001 # CA
305 5 0.000000 3.154000 41.186001 52.678001 # O
306 2 0.000000 4.516000 42.067001 53.915001 # CA
307 5 0.000000 27.603001 56.807999 19.660000 # O
308 2 0.000000 26.118000 56.816002 21.058001 # CA
309 5 0.000000 39.755001 37.006001 54.019001 # O
310 2 0.000000 40.542999 38.844002 54.423000 # CA
311 5 0.000000 20.481001 28.806000 26.781000 # O
312 2 0.000000 22.072001 27.684999 27.389999 # CA
313 5 0.000000 35.323002 4.443000 54.785999 # O
314 2 0.000000 34.742001 2.490000 54.896999 # CA
315 5 0.000000 7.317000 7.116000 42.987000 # O
316 2 0.000000 5.370000 7.559000 43.403000 # CA
317 5 0.000000 32.810001 38.719002 34.513000 # O
318 2 0.000000 34.067001 39.813000 35.689999 # CA
319 5 0.000000 15.588000 20.365999 43.761002 # O
320 2 0.000000 15.056000 21.712000 45.199001 # CA
321 5 0.000000 10.374000 3.627000 14.972000 # O
322 2 0.000000 9.759000 3.106000 16.846001 # CA
323 5 0.000000 8.452000 47.198002 42.644001 # O
324 2 0.000000 9.705000 46.928001 41.056000 # CA
325 5 0.000000 8.105000 26.679001 36.646999 # O
326 2 0.000000 6.600000 27.493000 35.535999 # CA
327 5 0.000000 49.834999 37.987999 35.883999 # O
328 2 0.000000 51.754002 38.112000 35.202999 # CA
329 5 0.000000 19.261000 24.535000 41.450001 # O
330 2 0.000000 21.122000 24.662001 42.278000 # CA
331 5 0.000000 16.150000 5.726000 50.636002 # O
332 2 0.000000 14.369000 6.710000 50.785999 # CA
333 5 0.000000 14.863000 45.355999 37.561001 # O
334 2 0.000000 14.231000 45.145000 35.632999 # CA
335 5 0.000000 29.589001 55.969002 53.230000 # O
336 2 0.000000 29.367001 57.994999 53.305000 # CA
337 5 0.000000 28.943001 22.153999 44.521000 # O
338 2 0.000000 29.728001 23.245001 42.986000 # CA
339 5 0.000000 41.570000 54.412998 26.349001 # O
340 2 0.000000 40.854000 52.896999 25.186001 # CA
341 5 0.000000 54.122002 10.848000 45.595001 # O
342 2 0.000000 55.444000 9.349000 45.185001 # CA
343 5 0.000000 33.401001 8.261000 23.150999 # O
344 2 0.000000 35.321999 8.401000 23.823999 # CA
345 5 0.000000 12.652000 9.293000 38.603001 # O
346 2 0.000000 14.529000 9.803000 39.219002 # CA
347 5 0.000000 0.996000 56.487000 18.858999 # O
348 2 0.000000 3.033000 56.410000 18.768000 # CA
349 5 0.000000 9.351000 29.004999 14.506000 # O
350 2 0.000000 8.526000 29.999001 12.927000 # CA
351 5 0.000000 32.284000 28.958000 14.642000 # O
352 2 0.000000 33.845001 27.834999 13.963000 # CA
353 5 0.000000 52.556000 20.771000 50.217999 # O
354 2 0.000000 53.110001 19.844000 48.487000 # CA
355 5 0.000000 21.077999 15.428000 41.091000 # O
356 2 0.000000 19.159000 14.799000 40.799999 # CA
357 5 0.000000 42.869999 21.982000 37.154999 # O
358 2 0.000000 42.391998 22.695999 35.305000 # CA
359 5 0.000000 4.794000 34.354000 40.681999 # O
360 2 0.000000 5.250000 35.354000 38.963001 # CA
361 5 0.000000 49.783001 23.254999 12.449000 # O
362 2 0.000000 49.097000 25.076000 11.836000 # CA
363 5 0.000000 6.311000 16.965000 24.155001 # O
364 2 0.000000 6.066000 18.732000 25.145000 # CA
365 5 0.000000 10.870000 10.636000 1.070000 # O
366 2 0.000000 10.727000 12.670000 1.000000 # CA
367 5 0.000000 46.125999 27.806000 43.929001 # O
368 2 0.000000 46.118000 29.066000 45.533001 # CA
369 5 0.000000 53.487000 27.083000 30.666000 # O
370 2 0.000000 55.481998 27.337999 31.004999 # CA
371 5 0.000000 9.869000 27.780001 41.168999 # O
372 2 0.000000 11.884000 27.464001 41.217999 # CA
373 5 0.000000 21.739000 18.917999 18.264000 # O
374 2 0.000000 20.160000 19.667999 19.316999 # CA
375 5 0.000000 50.716999 29.347000 14.293000 # O
376 2 0.000000 51.236000 28.045000 15.776000 # CA
377 5 0.000000 52.966000 29.483999 7.934000 # O
378 2 0.000000 54.526001 28.530001 7.029000 # CA
379 5 0.000000 11.490000 35.859001 49.688000 # O
380 2 0.000000 11.300000 34.453999 51.154999 # CA
381 5 0.000000 27.792000 57.995998 47.000000 # O
382 2 0.000000 27.448999 56.818001 48.630001 # CA
383 5 0.000000 55.193001 8.223000 26.518000 # O
384 2 0.000000 55.966000 8.782000 24.714001 # CA
385 5 0.000000 33.683998 54.799000 18.725000 # O
386 2 0.000000 32.811001 54.665001 16.886000 # CA
387 5 0.000000 31.922001 15.403000 37.209999 # O
388 2 0.000000 30.125000 15.409000 36.244999 # CA
389 5 0.000000 47.784000 48.717999 48.125000 # O
390 2 0.000000 48.807999 50.333000 48.834999 # CA
391 5 0.000000 21.138000 54.008999 8.457000 # O
392 2 0.000000 22.851999 55.021999 8.010000 # CA
393 5 0.000000 5.623000 29.750999 8.606000 # O
394 2 0.000000 5.685000 28.097000 9.799000 # CA
395 5 0.000000 33.837002 16.313000 33.409000 # O
396 2 0.000000 34.752998 14.494000 33.520000 # CA
397 5 0.000000 57.706001 8.897000 30.806999 # O
398 2 0.000000 58.227001 8.198000 32.651001 # CA
399 5 0.000000 6.691000 47.036999 17.056000 # O
400 2 0.000000 6.579000 46.145000 15.225000 # CA
401 5 0.000000 14.237000 56.046001 12.720000 # O
402 2 0.000000 13.724000 54.535999 13.992000 # CA
403 5 0.000000 34.743000 11.882000 37.798000 # O
404 2 0.000000 35.682999 12.668000 39.430000 # CA
405 5 0.000000 39.240002 22.291000 48.662998 # O
406 2 0.000000 40.268002 21.521000 47.078999 # CA
407 5 0.000000 34.553001 6.067000 37.352001 # O
408 2 0.000000 33.951000 4.425000 36.300999 # CA
409 5 0.000000 47.924000 41.266998 26.948999 # O
410 2 0.000000 49.501999 39.979000 27.058001 # CA
411 5 0.000000 41.000999 4.499000 6.022000 # O
412 2 0.000000 42.860001 4.808000 5.242000 # CA
413 5 0.000000 39.251999 48.698002 33.826000 # O
414 2 0.000000 39.863998 46.811001 34.303001 # CA
415 5 0.000000 37.555000 30.249001 55.183998 # O
416 2 0.000000 36.377998 30.575001 53.549999 # CA
417 5 0.000000 22.666000 26.278999 1.000000 # O
418 2 0.000000 23.249001 28.233999 1.054000 # CA
419 5 0.000000 30.636999 5.935000 19.031000 # O
420 2 0.000000 28.672001 5.392000 19.113001 # CA
421 5 0.000000 34.680000 58.599998 14.555000 # O
422 2 0.000000 32.967999 58.599998 13.446000 # CA
423 5 0.000000 18.740000 24.687000 23.645000 # O
424 2 0.000000 20.179001 24.400000 25.063000 # CA
425 5 0.000000 22.205000 50.999001 6.264000 # O
426 2 0.000000 23.407000 49.393002 6.634000 # CA
427 5 0.000000 21.749001 5.760000 25.264000 # O
428 2 0.000000 21.243000 4.523000 23.723000 # CA
429 5 0.000000 51.151001 5.888000 1.039000 # O
430 2 0.000000 49.717999 4.833000 2.038000 # CA
431 5 0.000000 8.013000 42.068001 33.388000 # O
432 2 0.000000 6.997000 40.346001 32.984001 # CA
433 5 0.000000 16.259001 2.524000 34.270000 # O
434 2 0.000000 17.047001 2.944000 36.104000 # CA
435 5 0.000000 33.299000 14.347000 5.760000 # O
436 2 0.000000 34.804001 14.494000 4.391000 # CA
437 5 0.000000 46.543999 8.016000 44.588001 # O
438 2 0.000000 47.074001 6.046000 44.589001 # CA
439 5 0.000000 48.116001 43.314999 5.795000 # O
440 2 0.000000 46.352001 44.340000 5.801000 # CA
441 5 0.000000 3.965000 24.124001 11.017000 # O
442 2 0.000000 5.161000 22.513000 11.385000 # CA
443 5 0.000000 2.506000 29.216999 25.511000 # O
444 2 0.000000 1.839000 28.382999 27.250000 # CA
445 5 0.000000 15.051000 34.592999 8.764000 # O
446 2 0.000000 14.686000 36.297001 9.826000 # CA
447 5 0.000000 45.743999 42.894001 18.671000 # O
448 2 0.000000 46.029999 42.090000 16.818001 # CA
449 5 0.000000 15.003000 51.481998 33.830002 # O
450 2 0.000000 13.633000 52.901001 33.308998 # CA
451 5 0.000000 45.313999 8.818000 48.248001 # O
452 2 0.000000 43.730000 7.765000 48.986000 # CA
453 5 0.000000 58.403999 58.601002 8.795000 # O
454 2 0.000000 58.071999 57.716000 10.603000 # CA
455 5 0.000000 25.080999 26.163000 27.855000 # O
456 2 0.000000 23.353001 25.198999 28.353001 # CA
457 5 0.000000 37.278999 24.799000 12.786000 # O
458 2 0.000000 38.849998 26.047001 13.153000 # CA
459 5 0.000000 7.831000 47.070000 12.768000 # O
460 2 0.000000 9.290000 46.673000 11.397000 # CA
461 5 0.000000 1.553000 9.452000 21.759001 # O
462 2 0.000000 3.563000 9.341000 21.429001 # CA
463 5 0.000000 58.608002 6.449000 25.986000 # O
464 2 0.000000 58.140999 4.464000 25.926001 # CA
465 5 0.000000 19.200001 31.263000 34.793999 # O
466 2 0.000000 21.200001 31.365000 34.407001 # CA
467 5 0.000000 3.777000 43.620998 56.971001 # O
468 2 0.000000 1.854000 43.987999 57.547001 # CA
469 5 0.000000 5.707000 53.230000 14.966000 # O
470 2 0.000000 7.088000 51.965000 15.776000 # CA
471 5 0.000000 23.040001 41.212002 1.425000 # O
472 2 0.000000 21.844999 42.861000 1.552000 # CA
473 5 0.000000 29.862000 54.174999 24.040001 # O
474 2 0.000000 28.444000 54.259998 22.576000 # CA
475 5 0.000000 48.799999 18.143000 16.336000 # O
476 2 0.000000 47.648998 19.704000 15.703000 # CA
477 5 0.000000 46.430000 56.314999 45.133999 # O
478 2 0.000000 45.474998 54.721001 45.976002 # CA
479 5 0.000000 38.002998 20.492001 9.982000 # O
480 2 0.000000 36.122002 21.058001 10.531000 # CA
481 5 0.000000 33.355000 48.721001 36.595001 # O
482 2 0.000000 35.043999 47.789001 35.931999 # CA
483 5 0.000000 2.102000 33.953999 25.597000 # O
484 2 0.000000 3.498000 34.923000 26.726000 # CA
485 5 0.000000 55.542000 28.007999 58.223999 # O
486 2 0.000000 56.591999 26.761000 56.998001 # CA
487 5 0.000000 1.000000 19.933001 54.509998 # O
488 2 0.000000 2.858000 19.169001 54.862000 # CA
489 5 0.000000 13.873000 33.606998 52.394001 # O
490 2 0.000000 14.424000 31.683001 51.998001 # CA
491 5 0.000000 25.513000 24.128000 38.891998 # O
492 2 0.000000 24.302999 24.858999 37.422001 # CA
493 5 0.000000 38.445999 6.749000 47.285999 # O
494 2 0.000000 37.292000 5.957000 48.770000 # CA
495 5 0.000000 58.599998 38.715000 15.902000 # O
496 2 0.000000 57.421001 40.380001 15.912000 # CA
497 5 0.000000 35.535000 30.327000 10.349000 # O
498 2 0.000000 36.852001 31.698000 11.090000 # CA
499 5 0.000000 42.709000 55.807999 45.404999 # O
500 2 0.000000 43.272999 54.067001 44.502998 # CA
501 5 0.000000 27.538000 47.731998 22.850000 # O
502 2 0.000000 25.906000 48.943001 23.028000 # CA
503 5 0.000000 48.094002 28.648001 14.072000 # O
504 2 0.000000 47.070999 28.528999 12.311000 # CA
505 5 0.000000 58.602001 34.791000 35.830002 # O
506 2 0.000000 58.599998 33.014000 36.832001 # CA
507 5 0.000000 38.278000 57.358002 50.827000 # O
508 2 0.000000 39.888000 56.259998 51.431000 # CA
509 5 0.000000 54.862000 24.299999 50.991001 # O
510 2 0.000000 53.709000 23.910000 52.629002 # CA
511 5 0.000000 40.853001 35.401001 55.047001 # O
512 2 0.000000 41.608002 34.230999 53.556000 # CA
513 5 0.000000 36.863998 46.716000 49.067001 # O
514 2 0.000000 38.752998 47.398998 49.425999 # CA
515 5 0.000000 22.145000 11.379000 1.097000 # O
516 2 0.000000 21.308001 9.522000 0.980000 # CA
517 5 0.000000 48.050999 30.733000 7.119000 # O
518 2 0.000000 46.741001 29.915001 8.453000 # CA
519 5 0.000000 51.306000 4.542000 32.698002 # O
520 2 0.000000 49.334000 4.755000 32.222000 # CA
521 5 0.000000 8.411000 38.462002 19.586000 # O
522 2 0.000000 9.729000 39.487000 18.413000 # CA
523 5 0.000000 46.173000 33.665001 32.707001 # O
524 2 0.000000 46.639999 31.735001 32.240002 # CA
525 5 0.000000 2.362000 51.775002 40.875999 # O
526 2 0.000000 1.931000 50.849998 42.643002 # CA
527 5 0.000000 26.597000 37.178001 55.780998 # O
528 2 0.000000 27.132000 36.944000 57.735001 # CA
529 5 0.000000 20.650000 33.285000 5.147000 # O
530 2 0.000000 18.618999 33.115002 5.240000 # CA
531 5 0.000000 6.910000 51.818001 3.808000 # O
532 2 0.000000 5.205000 51.504002 4.883000 # CA
533 5 0.000000 9.315000 57.700001 27.704000 # O
534 2 0.000000 8.224000 56.608002 26.370001 # CA
535 5 0.000000 46.727001 19.000000 47.694000 # O
536 2 0.000000 48.389000 18.658001 48.826000 # CA
537 5 0.000000 42.437000 33.603001 23.153000 # O
538 2 0.000000 44.369999 33.167999 22.665001 # CA
539 5 0.000000 49.870998 12.443000 51.851002 # O
540 2 0.000000 51.632999 13.470000 51.893002 # CA
541 5 0.000000 58.353001 25.368000 3.488000 # O
542 2 0.000000 56.576000 25.105000 2.522000 # CA
543 5 0.000000 32.702000 25.214001 58.423000 # O
544 2 0.000000 32.057999 24.025999 56.895000 # CA
545 5 0.000000 22.742001 24.388000 58.187000 # O
546 2 0.000000 20.913000 23.492001 58.305000 # CA
547 5 0.000000 4.261000 14.774000 29.309000 # O
548 2 0.000000 4.570000 16.037001 30.882000 # CA
549 5 0.000000 18.687000 10.722000 29.136000 # O
550 2 0.000000 19.535999 12.577000 29.155001 # CA
551 5 0.000000 37.848999 14.104000 21.791000 # O
552 2 0.000000 36.749001 12.662000 20.858000 # CA
553 5 0.000000 56.098999 3.392000 31.489000 # O
554 2 0.000000 54.486000 4.598000 31.162001 # CA
555 5 0.000000 36.276001 34.865002 14.586000 # O
556 2 0.000000 35.974998 33.827999 16.316999 # CA
557 5 0.000000 14.396000 29.778000 58.278000 # O
558 2 0.000000 13.430000 28.011999 57.945999 # CA
559 5 0.000000 57.719002 50.319000 48.356998 # O
560 2 0.000000 57.499001 51.826000 49.715000 # CA
561 5 0.000000 7.673000 10.931000 32.249001 # O
562 2 0.000000 5.680000 10.516000 32.382000 # CA
563 5 0.000000 27.138000 14.702000 5.069000 # O
564 2 0.000000 27.816999 12.778000 5.059000 # CA
565 5 0.000000 32.071999 36.563000 33.977001 # O
566 2 0.000000 30.347000 37.651001 33.939999 # CA
567 5 0.000000 38.941002 3.348000 17.818001 # O
568 2 0.000000 40.632999 4.460000 18.066999 # CA
569 5 0.000000 4.372000 7.569000 40.262001 # O
570 2 0.000000 2.759000 8.672000 40.848999 # CA
571 5 0.000000 42.943001 32.097000 46.285999 # O
572 2 0.000000 44.069000 31.872000 47.971001 # CA
573 5 0.000000 29.834000 1.985000 42.694000 # O
574 2 0.000000 28.231001 1.000000 41.904999 # CA
575 5 0.000000 13.871000 27.773001 21.870001 # O
576 2 0.000000 15.320000 27.440001 23.267000 # CA
577 5 0.000000 28.068001 6.943000 12.690000 # O
578 2 0.000000 27.912001 8.962000 12.441000 # CA
579 5 0.000000 20.480000 19.664000 6.605000 # O
580 2 0.000000 18.871000 18.421000 6.770000 # CA
581 5 0.000000 15.720000 19.790001 47.929001 # O
582 2 0.000000 15.269000 18.100000 48.979000 # CA
583 5 0.000000 38.714001 12.403000 25.714001 # O
584 2 0.000000 37.485001 10.775000 25.721001 # CA
585 5 0.000000 58.599998 10.300000 7.031000 # O
586 2 0.000000 58.599998 8.512000 8.014000 # CA
587 5 0.000000 23.009001 25.017000 6.925000 # O
588 2 0.000000 22.372999 24.549999 5.044000 # CA
589 5 0.000000 46.376999 54.073002 15.200000 # O
590 2 0.000000 44.856998 53.821999 16.538000 # CA
591 5 0.000000 23.139000 2.914000 40.499001 # O
592 2 0.000000 23.816000 0.997000 40.324001 # CA
593 5 0.000000 1.438000 12.243000 45.481998 # O
594 2 0.000000 2.900000 11.650000 44.188999 # CA
595 5 0.000000 28.555000 49.192001 40.707001 # O
596 2 0.000000 28.881001 47.390999 39.806000 # CA
597 5 0.000000 36.097000 41.520000 47.352001 # O
598 2 0.000000 34.384998 42.123001 46.419998 # CA
599 5 0.000000 1.147000 5.677000 4.305000 # O
600 2 0.000000 2.595000 6.627000 5.383000 # CA
601 5 0.000000 13.185000 36.894001 36.922001 # O
602 2 0.000000 14.141000 37.441002 35.205002 # CA
603 5 0.000000 36.667999 47.391998 15.913000 # O
604 2 0.000000 36.609001 49.411999 15.637000 # CA