ITEM: TIMESTEP
0
ITEM: NUMBER OF ATOMS
286
ITEM: BOX BOUNDS pp pp pp
0.0000000000000000e+00 2.0029380798300000e+01
0.0000000000000000e+00 1.1596211433400001e+01
0.0000000000000000e+00 1.9680415410399998e+01
ITEM: ATOMS id type xs ys zs ix iy iz
20 2 0.319964 0.00124517 0.267825 0 0 0
35 2 0.280226 0.15007 0.0883616 0 0 0
43 2 0.161641 0.170075 0.220293 0 0 0
59 2 0.100086 0.337963 0.0821364 0 0 0
66 2 0.329453 0.330925 0.253709 0 0 0
122 3 0.3317 0.307915 0.116961 0 0 0
144 3 0.160072 0.487272 0.106303 0 0 0
166 3 0.191738 0.314925 0.279997 0 0 0
175 3 0.0337321 0.178853 0.318478 0 0 0
198 3 0.275385 0.141885 0.210702 0 0 0
212 3 0.0731671 0.287593 0.184033 0 0 0
220 3 0.191347 0.249155 0.121386 0 0 0
233 3 0.0942977 0.118621 0.0195098 0 0 0
246 3 0.211539 0.00752207 0.316905 0 0 0
248 3 0.0222104 0.496607 0.103511 0 0 0
274 3 0.0729138 0.495603 0.328251 0 0 0
23 2 0.493534 0.168347 0.261184 0 0 0
38 2 0.660615 0.330385 0.218755 0 0 0
54 2 0.600712 0.162832 0.0796546 0 0 0
103 2 0.438344 0.33412 0.0955355 0 0 0
107 2 0.490485 0.486389 0.266175 0 0 0
130 3 0.388909 0.490562 0.294488 0 0 0
142 3 0.660207 0.0132651 0.105164 0 0 0
154 3 0.441213 0.311349 0.210789 0 0 0
170 3 0.536113 0.316175 0.313714 0 0 0
180 3 0.397077 0.49868 0.119307 0 0 0
191 3 0.389337 0.182334 0.312157 0 0 0
209 3 0.571989 0.209975 0.181239 0 0 0
228 3 0.593672 0.380994 0.0197026 0 0 0
250 3 0.522381 0.00326213 0.0975176 0 0 0
254 3 0.41467 0.00901259 0.190887 0 0 0
261 3 0.405411 0.119196 0.0620651 0 0 0
26 2 0.992717 0.328027 0.263956 -1 0 0
30 2 0.780219 0.351521 0.0892509 0 0 0
63 2 0.828408 0.171672 0.248437 0 0 0
98 2 0.939613 0.165971 0.0966703 0 0 0
105 2 0.985172 0.00815114 0.269015 -1 0 0
119 3 0.832987 0.195581 0.121015 0 0 0
132 3 0.882223 0.00847397 0.292809 0 0 0
159 3 0.940812 0.18461 0.211515 -1 0 0
163 3 0.69145 0.184597 0.277928 0 0 0
178 3 0.896647 0.00265169 0.117008 0 0 0
186 3 0.888593 0.317601 0.312612 -1 0 0
195 3 0.774085 0.359248 0.210741 0 0 0
217 3 0.691689 0.250388 0.120211 0 0 0
252 3 0.913062 0.490085 0.194513 0 0 0
256 3 0.905682 0.38284 0.0642789 0 0 0
283 3 0.701449 0.498443 0.305563 0 0 0
4 1 0.0977365 0.994014 0.0690595 0 0 0
34 2 0.265157 0.820976 0.0849356 0 0 0
42 2 0.147517 0.830147 0.229628 0 0 0
49 2 0.167743 0.503535 0.244911 0 0 0
58 2 0.11416 0.655179 0.0782006 0 0 0
67 2 0.325812 0.68745 0.250327 0 0 0
69 2 0.283489 0.504773 0.0935758 0 0 0
123 3 0.330046 0.681199 0.120728 0 0 0
148 3 0.270367 0.502753 0.201979 0 0 0
167 3 0.185743 0.694748 0.2914 0 0 0
174 3 0.0369965 0.816564 0.318006 0 0 0
199 3 0.280694 0.858145 0.211376 0 0 0
205 3 0.217813 0.666744 0.0321516 0 0 0
213 3 0.0648391 0.722819 0.184058 0 0 0
221 3 0.188173 0.729188 0.148859 0 0 0
226 3 0.170004 0.990575 0.116961 0 0 0
232 3 0.0936114 0.869174 0.0200732 0 0 0
238 3 0.0298911 0.995679 0.124217 0 -1 0
2 1 0.59814 0.506375 0.0685942 0 0 0
10 1 0.436616 0.999465 0.104053 0 0 0
22 2 0.492341 0.832251 0.261559 0 0 0
39 2 0.644413 0.671468 0.228528 0 0 0
55 2 0.61474 0.846028 0.0762757 0 0 0
102 2 0.440812 0.665874 0.0992411 0 0 0
155 3 0.433325 0.698838 0.211838 0 0 0
171 3 0.539554 0.689523 0.313599 0 0 0
190 3 0.385592 0.82537 0.316682 0 0 0
208 3 0.564588 0.785278 0.181428 0 0 0
229 3 0.594832 0.630689 0.0190942 0 0 0
236 3 0.530815 0.507149 0.124293 0 0 0
260 3 0.405095 0.874794 0.068826 0 0 0
8 1 0.936248 0.501138 0.107992 0 0 0
18 2 0.81826 0.500929 0.268866 0 0 0
27 2 0.991666 0.673814 0.263419 -1 0 0
31 2 0.765729 0.67899 0.0862002 0 0 0
51 2 0.670236 0.995478 0.243329 0 0 0
62 2 0.824795 0.814876 0.246858 0 0 0
71 2 0.782862 0.994593 0.0893035 0 0 0
99 2 0.942042 0.836772 0.0994162 0 0 0
118 3 0.830314 0.820961 0.121272 0 0 0
146 3 0.770217 0.999295 0.197723 0 0 0
158 3 0.933886 0.810785 0.212385 -1 0 0
162 3 0.688159 0.804807 0.288338 0 0 0
187 3 0.884531 0.681995 0.315763 -1 0 0
194 3 0.783286 0.642376 0.208061 0 0 0
202 3 0.721121 0.838366 0.032668 0 0 0
216 3 0.68754 0.769948 0.147133 0 0 0
224 3 0.670798 0.508755 0.116086 0 0 0
257 3 0.905655 0.626533 0.0727657 0 0 0
6 1 0.201092 0.00289358 0.404871 0 0 0
11 1 0.0751497 0.00213192 0.59017 0 0 0
14 1 0.0407464 0.497786 0.409517 0 0 0
48 2 0.259457 0.49736 0.57827 0 0 0
73 2 0.0858978 0.347966 0.57241 0 0 0
78 2 0.0295415 0.151979 0.428991 0 0 0
87 2 0.205121 0.348573 0.404018 0 0 0
96 2 0.241013 0.168824 0.578293 0 0 0
116 3 0.191659 0.327461 0.546181 0 0 0
137 3 0.316974 0.301396 0.593622 0 0 0
139 3 0.308021 0.318886 0.381349 0 0 0
152 3 0.253773 0.494858 0.463896 0 0 0
242 3 0.237553 0.124152 0.440182 0 0 0
244 3 0.116149 0.000446794 0.422429 0 0 0
263 3 0.120182 0.12896 0.581964 0 0 0
275 3 0.0106307 0.000336484 0.531116 0 0 0
278 3 0.104499 0.494193 0.469079 0 0 0
12 1 0.536724 0.000905228 0.412273 0 1 0
13 1 0.579791 0.498445 0.587559 0 0 0
75 2 0.537654 0.339146 0.426242 0 0 0
80 2 0.579214 0.159859 0.575018 0 0 0
85 2 0.418499 0.347935 0.59711 0 0 0
94 2 0.372946 0.179521 0.419906 0 0 0
114 3 0.428817 0.326332 0.451706 0 0 0
151 3 0.374036 0.498608 0.535658 0 0 0
183 3 0.38574 0.497772 0.661259 0 0 0
265 3 0.487192 0.122139 0.406228 0 0 0
270 3 0.626628 0.373975 0.593735 0 0 0
272 3 0.587232 0.00244686 0.341628 0 1 0
276 3 0.584355 0.00616832 0.485811 0 0 0
277 3 0.531969 0.494962 0.513883 0 0 0
279 3 0.659633 0.379357 0.424287 0 0 0
281 3 0.45653 0.122204 0.577059 0 0 0
5 1 0.913784 0.498075 0.594615 -1 0 0
46 2 0.750176 0.000361859 0.577102 0 0 0
82 2 0.698392 0.148028 0.398811 0 0 0
84 2 0.910914 0.155483 0.594731 -1 0 0
89 2 0.741721 0.321852 0.581585 0 0 0
91 2 0.873045 0.328651 0.421884 -1 0 0
109 3 0.687338 0.17429 0.547991 0 0 0
111 3 0.922947 0.170852 0.452856 -1 0 0
134 3 0.799701 0.19583 0.394214 0 0 0
136 3 0.807672 0.18166 0.615804 -1 0 0
149 3 0.861984 0.00275186 0.535177 -1 0 0
150 3 0.742316 0.00395489 0.462976 0 0 0
181 3 0.89496 0.001926 0.657494 -1 0 0
240 3 0.879915 0.375326 0.558384 -1 0 0
268 3 0.992158 0.374577 0.41645 -1 0 0
76 2 0.0856709 0.655829 0.573249 0 0 0
79 2 0.0309149 0.843823 0.427617 0 0 0
86 2 0.20431 0.653642 0.406457 0 0 0
93 2 0.244068 0.830565 0.574526 0 0 0
113 3 0.191744 0.672995 0.545991 0 0 0
125 3 0.13079 0.502341 0.614792 0 0 0
138 3 0.30829 0.680217 0.390354 0 0 0
140 3 0.318998 0.69795 0.592829 0 0 0
184 3 0.220954 0.501986 0.341534 0 0 0
241 3 0.23846 0.878965 0.43558 0 0 0
266 3 0.123427 0.878868 0.582878 0 0 0
16 1 0.414876 0.998899 0.60348 0 -1 0
47 2 0.366335 0.501639 0.42216 0 0 0
74 2 0.53788 0.664024 0.42414 0 0 0
77 2 0.578707 0.835349 0.575946 0 0 0
88 2 0.419811 0.647747 0.597219 0 0 0
95 2 0.372798 0.821509 0.424404 0 0 0
115 3 0.43004 0.672205 0.4512 0 0 0
126 3 0.509116 0.500508 0.380746 0 0 0
127 3 0.60799 0.997499 0.620162 0 -1 0
264 3 0.490535 0.87505 0.410014 0 0 0
267 3 0.628261 0.621399 0.589321 0 0 0
273 3 0.529305 0.501944 0.658059 0 0 0
280 3 0.661603 0.627118 0.421171 0 0 0
282 3 0.455802 0.874107 0.578172 0 0 0
286 3 0.334081 0.999961 0.57387 0 -1 0
15 1 0.700101 0.501111 0.394314 0 0 0
45 2 0.857428 0.997481 0.421095 -1 0 0
81 2 0.911841 0.850479 0.593367 -1 0 0
83 2 0.69616 0.848363 0.403802 0 0 0
90 2 0.873621 0.667216 0.425204 -1 0 0
92 2 0.745089 0.679561 0.575518 0 0 0
110 3 0.924861 0.825895 0.453869 -1 0 0
112 3 0.68674 0.82761 0.548097 0 0 0
128 3 0.985622 0.997939 0.386278 -1 0 0
133 3 0.808357 0.820938 0.611368 -1 0 0
135 3 0.797153 0.799061 0.411215 0 0 0
182 3 0.729968 0.996608 0.337125 0 0 0
239 3 0.876942 0.620654 0.561409 -1 0 0
243 3 0.999373 0.502061 0.580634 -1 0 0
269 3 0.995476 0.624495 0.416866 -1 0 0
285 3 0.783172 0.500657 0.41757 0 0 0
9 1 0.180477 0.00253949 0.896218 0 0 0
21 2 0.122369 0.173318 0.739731 0 0 0
56 2 0.00424829 0.166814 0.921102 0 0 0
68 2 0.287101 0.328117 0.754408 0 0 0
101 2 0.176779 0.332662 0.905371 0 0 0
108 2 0.132349 0.491374 0.732409 0 0 0
124 3 0.283035 0.308655 0.878539 0 0 0
129 3 0.235069 0.485714 0.707018 0 0 0
156 3 0.176787 0.316287 0.789967 0 0 0
172 3 0.0822289 0.322198 0.683371 0 0 0
179 3 0.217259 0.498186 0.883318 0 0 0
189 3 0.227802 0.186057 0.687554 0 0 0
207 3 0.0460931 0.223908 0.818243 0 0 0
230 3 0.0321542 0.379605 0.977817 0 0 0
249 3 0.0954258 0.00747538 0.905236 0 0 0
253 3 0.199437 0.00928554 0.807938 0 0 0
259 3 0.214807 0.121022 0.9377 0 0 0
271 3 0.0441291 0.00177714 0.671847 0 1 0
28 2 0.620583 0.329749 0.742594 0 0 0
33 2 0.34593 0.165975 0.912797 0 0 0
41 2 0.459574 0.163966 0.774318 0 0 0
50 2 0.445329 0.496304 0.755517 0 0 0
57 2 0.50341 0.332809 0.923369 0 0 0
106 2 0.62754 0.0127442 0.735449 0 0 0
143 3 0.455481 0.492844 0.889834 0 0 0
147 3 0.345463 0.499151 0.801491 0 0 0
168 3 0.426313 0.306196 0.714594 0 0 0
173 3 0.580051 0.18145 0.687764 0 0 0
200 3 0.342018 0.129632 0.797792 0 0 0
204 3 0.39459 0.294862 0.984085 0 0 0
214 3 0.546184 0.278496 0.821092 0 0 0
222 3 0.423275 0.260978 0.860193 0 0 0
225 3 0.441109 0.00704659 0.891534 0 0 0
231 3 0.532767 0.120299 0.978329 0 0 0
247 3 0.595222 0.491867 0.911219 0 0 0
7 1 0.680002 0.497121 0.900466 -1 0 0
17 2 0.793942 0.499526 0.737024 -1 0 0
32 2 0.846283 0.332456 0.912283 -1 0 0
40 2 0.959671 0.335647 0.772572 -1 0 0
52 2 0.948219 0.00239536 0.75438 -1 1 0
61 2 0.785908 0.169473 0.748034 -1 0 0
100 2 0.678046 0.167738 0.905924 -1 0 0
117 3 0.783875 0.189262 0.879761 -1 0 0
131 3 0.728969 0.0140165 0.70559 0 0 0
141 3 0.955817 0.00686015 0.889073 -1 0 0
145 3 0.845619 0.000260474 0.797401 -1 1 0
157 3 0.675964 0.186973 0.789874 0 0 0
161 3 0.928069 0.193433 0.71241 -1 0 0
177 3 0.716653 0.000974431 0.881435 -1 0 0
188 3 0.726173 0.317907 0.688874 0 0 0
193 3 0.84228 0.369383 0.79734 -1 0 0
203 3 0.894692 0.201755 0.982237 -1 0 0
215 3 0.924039 0.239645 0.858789 -1 0 0
223 3 0.942518 0.494604 0.889643 -1 0 0
245 3 0.899705 0.493809 0.681897 -1 0 0
251 3 0.697632 0.491708 0.811991 -1 0 0
258 3 0.715639 0.378019 0.940379 -1 0 0
1 1 0.0184934 0.505211 0.930632 0 0 0
19 2 0.29577 0.999428 0.734977 0 -1 0
24 2 0.12599 0.830216 0.735173 0 0 0
53 2 0.00295557 0.845326 0.921882 0 0 0
65 2 0.292018 0.684763 0.752531 0 0 0
104 2 0.175011 0.665319 0.899535 0 0 0
121 3 0.286298 0.679729 0.878406 0 0 0
153 3 0.18184 0.689779 0.786448 0 0 0
169 3 0.0778038 0.687249 0.682097 0 0 0
192 3 0.232523 0.818178 0.683483 0 0 0
197 3 0.330794 0.855175 0.792672 0 0 0
210 3 0.0501248 0.788508 0.813603 0 0 0
227 3 0.0195889 0.627852 0.981794 0 0 0
235 3 0.0812596 0.517738 0.870429 0 0 0
262 3 0.212311 0.877227 0.931139 0 0 0
3 1 0.517852 0.994979 0.931304 0 0 0
25 2 0.625657 0.663741 0.737354 0 0 0
36 2 0.349663 0.823597 0.913423 0 0 0
44 2 0.474938 0.82356 0.76899 0 0 0
60 2 0.502166 0.654222 0.923453 0 0 0
70 2 0.334622 0.503707 0.911241 0 0 0
165 3 0.427162 0.688745 0.714427 0 0 0
176 3 0.575481 0.805001 0.685748 0 0 0
206 3 0.396204 0.662152 0.96813 0 0 0
211 3 0.550185 0.70469 0.815942 0 0 0
219 3 0.43169 0.741977 0.856152 0 0 0
234 3 0.518905 0.8722 0.982361 0 0 0
237 3 0.57949 0.981213 0.870105 0 0 0
284 3 0.409064 0.99969 0.692123 0 -1 0
29 2 0.850445 0.677875 0.914622 -1 0 0
37 2 0.971706 0.674828 0.768619 -1 0 0
64 2 0.791259 0.813731 0.749515 -1 0 0
72 2 0.834105 0.998748 0.907211 -1 0 0
97 2 0.676194 0.832354 0.900049 -1 0 0
120 3 0.786293 0.818902 0.879355 -1 0 0
160 3 0.682033 0.801903 0.787081 0 0 0
164 3 0.929524 0.810999 0.711129 -1 0 0
185 3 0.731754 0.67535 0.68311 0 0 0
196 3 0.834452 0.645458 0.789764 -1 0 0
201 3 0.899032 0.83414 0.968728 -1 0 0
218 3 0.930755 0.761457 0.854376 -1 0 0
255 3 0.711962 0.622745 0.934899 -1 0 0
ITEM: TIMESTEP
1
ITEM: NUMBER OF ATOMS
286
ITEM: BOX BOUNDS pp pp pp
0.0000000000000000e+00 2.0029380798300000e+01
0.0000000000000000e+00 1.1596211433400001e+01
0.0000000000000000e+00 1.9680415410399998e+01
ITEM: ATOMS id type xs ys zs ix iy iz
20 2 0.319964 0.00124517 0.267825 0 0 0
35 2 0.280226 0.15007 0.0883616 0 0 0
43 2 0.161641 0.170075 0.220293 0 0 0
59 2 0.100086 0.337963 0.0821364 0 0 0
66 2 0.329453 0.330925 0.253709 0 0 0
122 3 0.3317 0.307915 0.116961 0 0 0
144 3 0.160072 0.487272 0.106303 0 0 0
166 3 0.191738 0.314925 0.279997 0 0 0
175 3 0.0337321 0.178853 0.318478 0 0 0
198 3 0.275385 0.141885 0.210702 0 0 0
212 3 0.0731671 0.287593 0.184033 0 0 0
220 3 0.191347 0.249155 0.121386 0 0 0
233 3 0.0942977 0.118621 0.0195098 0 0 0
246 3 0.211539 0.00752207 0.316905 0 0 0
248 3 0.0222104 0.496607 0.103511 0 0 0
274 3 0.0729138 0.495603 0.328251 0 0 0
23 2 0.493534 0.168347 0.261184 0 0 0
38 2 0.660615 0.330385 0.218755 0 0 0
54 2 0.600712 0.162832 0.0796546 0 0 0
103 2 0.438344 0.33412 0.0955355 0 0 0
107 2 0.490485 0.486389 0.266175 0 0 0
130 3 0.388909 0.490562 0.294488 0 0 0
142 3 0.660207 0.0132651 0.105164 0 0 0
154 3 0.441213 0.311349 0.210789 0 0 0
170 3 0.536113 0.316175 0.313714 0 0 0
180 3 0.397077 0.49868 0.119307 0 0 0
191 3 0.389337 0.182334 0.312157 0 0 0
209 3 0.571989 0.209975 0.181239 0 0 0
228 3 0.593672 0.380994 0.0197026 0 0 0
250 3 0.522381 0.00326213 0.0975176 0 0 0
254 3 0.41467 0.00901259 0.190887 0 0 0
261 3 0.405411 0.119196 0.0620651 0 0 0
26 2 0.992717 0.328027 0.263956 -1 0 0
30 2 0.780219 0.351521 0.0892509 0 0 0
63 2 0.828408 0.171672 0.248437 0 0 0
98 2 0.939613 0.165971 0.0966703 0 0 0
105 2 0.985172 0.00815114 0.269015 -1 0 0
119 3 0.832987 0.195581 0.121015 0 0 0
132 3 0.882223 0.00847397 0.292809 0 0 0
159 3 0.940812 0.18461 0.211515 -1 0 0
163 3 0.69145 0.184597 0.277928 0 0 0
178 3 0.896647 0.00265169 0.117008 0 0 0
186 3 0.888593 0.317601 0.312612 -1 0 0
195 3 0.774085 0.359248 0.210741 0 0 0
217 3 0.691689 0.250388 0.120211 0 0 0
252 3 0.913062 0.490085 0.194513 0 0 0
256 3 0.905682 0.38284 0.0642789 0 0 0
283 3 0.701449 0.498443 0.305563 0 0 0
4 1 0.0977365 0.994014 0.0690595 0 0 0
34 2 0.265157 0.820976 0.0849356 0 0 0
42 2 0.147517 0.830147 0.229628 0 0 0
49 2 0.167743 0.503535 0.244911 0 0 0
58 2 0.11416 0.655179 0.0782006 0 0 0
67 2 0.325812 0.68745 0.250327 0 0 0
69 2 0.283489 0.504773 0.0935758 0 0 0
123 3 0.330046 0.681199 0.120728 0 0 0
148 3 0.270367 0.502753 0.201979 0 0 0
167 3 0.185743 0.694748 0.2914 0 0 0
174 3 0.0369965 0.816564 0.318006 0 0 0
199 3 0.280694 0.858145 0.211376 0 0 0
205 3 0.217813 0.666744 0.0321516 0 0 0
213 3 0.0648391 0.722819 0.184058 0 0 0
221 3 0.188173 0.729188 0.148859 0 0 0
226 3 0.170004 0.990575 0.116961 0 0 0
232 3 0.0936114 0.869174 0.0200732 0 0 0
238 3 0.0298911 0.995679 0.124217 0 -1 0
2 1 0.59814 0.506375 0.0685942 0 0 0
10 1 0.436616 0.999465 0.104053 0 0 0
22 2 0.492341 0.832251 0.261559 0 0 0
39 2 0.644413 0.671468 0.228528 0 0 0
55 2 0.61474 0.846028 0.0762757 0 0 0
102 2 0.440812 0.665874 0.0992411 0 0 0
155 3 0.433325 0.698838 0.211838 0 0 0
171 3 0.539554 0.689523 0.313599 0 0 0
190 3 0.385592 0.82537 0.316682 0 0 0
208 3 0.564588 0.785278 0.181428 0 0 0
229 3 0.594832 0.630689 0.0190942 0 0 0
236 3 0.530815 0.507149 0.124293 0 0 0
260 3 0.405095 0.874794 0.068826 0 0 0
8 1 0.936248 0.501138 0.107992 0 0 0
18 2 0.81826 0.500929 0.268866 0 0 0
27 2 0.991666 0.673814 0.263419 -1 0 0
31 2 0.765729 0.67899 0.0862002 0 0 0
51 2 0.670236 0.995478 0.243329 0 0 0
62 2 0.824795 0.814876 0.246858 0 0 0
71 2 0.782862 0.994593 0.0893035 0 0 0
99 2 0.942042 0.836772 0.0994162 0 0 0
118 3 0.830314 0.820961 0.121272 0 0 0
146 3 0.770217 0.999295 0.197723 0 0 0
158 3 0.933886 0.810785 0.212385 -1 0 0
162 3 0.688159 0.804807 0.288338 0 0 0
187 3 0.884531 0.681995 0.315763 -1 0 0
194 3 0.783286 0.642376 0.208061 0 0 0
202 3 0.721121 0.838366 0.032668 0 0 0
216 3 0.68754 0.769948 0.147133 0 0 0
224 3 0.670798 0.508755 0.116086 0 0 0
257 3 0.905655 0.626533 0.0727657 0 0 0
6 1 0.201092 0.00289358 0.404871 0 0 0
11 1 0.0751497 0.00213192 0.59017 0 0 0
14 1 0.0407464 0.497786 0.409517 0 0 0
48 2 0.259457 0.49736 0.57827 0 0 0
73 2 0.0858978 0.347966 0.57241 0 0 0
78 2 0.0295415 0.151979 0.428991 0 0 0
87 2 0.205121 0.348573 0.404018 0 0 0
96 2 0.241013 0.168824 0.578293 0 0 0
116 3 0.191659 0.327461 0.546181 0 0 0
137 3 0.316974 0.301396 0.593622 0 0 0
139 3 0.308021 0.318886 0.381349 0 0 0
152 3 0.253773 0.494858 0.463896 0 0 0
242 3 0.237553 0.124152 0.440182 0 0 0
244 3 0.116149 0.000446794 0.422429 0 0 0
263 3 0.120182 0.12896 0.581964 0 0 0
275 3 0.0106307 0.000336484 0.531116 0 0 0
278 3 0.104499 0.494193 0.469079 0 0 0
12 1 0.536724 0.000905228 0.412273 0 1 0
13 1 0.579791 0.498445 0.587559 0 0 0
75 2 0.537654 0.339146 0.426242 0 0 0
80 2 0.579214 0.159859 0.575018 0 0 0
85 2 0.418499 0.347935 0.59711 0 0 0
94 2 0.372946 0.179521 0.419906 0 0 0
114 3 0.428817 0.326332 0.451706 0 0 0
151 3 0.374036 0.498608 0.535658 0 0 0
183 3 0.38574 0.497772 0.661259 0 0 0
265 3 0.487192 0.122139 0.406228 0 0 0
270 3 0.626628 0.373975 0.593735 0 0 0
272 3 0.587232 0.00244686 0.341628 0 1 0
276 3 0.584355 0.00616832 0.485811 0 0 0
277 3 0.531969 0.494962 0.513883 0 0 0
279 3 0.659633 0.379357 0.424287 0 0 0
281 3 0.45653 0.122204 0.577059 0 0 0
5 1 0.913784 0.498075 0.594615 -1 0 0
46 2 0.750176 0.000361859 0.577102 0 0 0
82 2 0.698392 0.148028 0.398811 0 0 0
84 2 0.910914 0.155483 0.594731 -1 0 0
89 2 0.741721 0.321852 0.581585 0 0 0
91 2 0.873045 0.328651 0.421884 -1 0 0
109 3 0.687338 0.17429 0.547991 0 0 0
111 3 0.922947 0.170852 0.452856 -1 0 0
134 3 0.799701 0.19583 0.394214 0 0 0
136 3 0.807672 0.18166 0.615804 -1 0 0
149 3 0.861984 0.00275186 0.535177 -1 0 0
150 3 0.742316 0.00395489 0.462976 0 0 0
181 3 0.89496 0.001926 0.657494 -1 0 0
240 3 0.879915 0.375326 0.558384 -1 0 0
268 3 0.992158 0.374577 0.41645 -1 0 0
76 2 0.0856709 0.655829 0.573249 0 0 0
79 2 0.0309149 0.843823 0.427617 0 0 0
86 2 0.20431 0.653642 0.406457 0 0 0
93 2 0.244068 0.830565 0.574526 0 0 0
113 3 0.191744 0.672995 0.545991 0 0 0
125 3 0.13079 0.502341 0.614792 0 0 0
138 3 0.30829 0.680217 0.390354 0 0 0
140 3 0.318998 0.69795 0.592829 0 0 0
184 3 0.220954 0.501986 0.341534 0 0 0
241 3 0.23846 0.878965 0.43558 0 0 0
266 3 0.123427 0.878868 0.582878 0 0 0
16 1 0.414876 0.998899 0.60348 0 -1 0
47 2 0.366335 0.501639 0.42216 0 0 0
74 2 0.53788 0.664024 0.42414 0 0 0
77 2 0.578707 0.835349 0.575946 0 0 0
88 2 0.419811 0.647747 0.597219 0 0 0
95 2 0.372798 0.821509 0.424404 0 0 0
115 3 0.43004 0.672205 0.4512 0 0 0
126 3 0.509116 0.500508 0.380746 0 0 0
127 3 0.60799 0.997499 0.620162 0 -1 0
264 3 0.490535 0.87505 0.410014 0 0 0
267 3 0.628261 0.621399 0.589321 0 0 0
273 3 0.529305 0.501944 0.658059 0 0 0
280 3 0.661603 0.627118 0.421171 0 0 0
282 3 0.455802 0.874107 0.578172 0 0 0
286 3 0.334081 0.999961 0.57387 0 -1 0
15 1 0.700101 0.501111 0.394314 0 0 0
45 2 0.857428 0.997481 0.421095 -1 0 0
81 2 0.911841 0.850479 0.593367 -1 0 0
83 2 0.69616 0.848363 0.403802 0 0 0
90 2 0.873621 0.667216 0.425204 -1 0 0
92 2 0.745089 0.679561 0.575518 0 0 0
110 3 0.924861 0.825895 0.453869 -1 0 0
112 3 0.68674 0.82761 0.548097 0 0 0
128 3 0.985622 0.997939 0.386278 -1 0 0
133 3 0.808357 0.820938 0.611368 -1 0 0
135 3 0.797153 0.799061 0.411215 0 0 0
182 3 0.729968 0.996608 0.337125 0 0 0
239 3 0.876942 0.620654 0.561409 -1 0 0
243 3 0.999373 0.502061 0.580634 -1 0 0
269 3 0.995476 0.624495 0.416866 -1 0 0
285 3 0.783172 0.500657 0.41757 0 0 0
9 1 0.180477 0.00253949 0.896218 0 0 0
21 2 0.122369 0.173318 0.739731 0 0 0
56 2 0.00424829 0.166814 0.921102 0 0 0
68 2 0.287101 0.328117 0.754408 0 0 0
101 2 0.176779 0.332662 0.905371 0 0 0
108 2 0.132349 0.491374 0.732409 0 0 0
124 3 0.283035 0.308655 0.878539 0 0 0
129 3 0.235069 0.485714 0.707018 0 0 0
156 3 0.176787 0.316287 0.789967 0 0 0
172 3 0.0822289 0.322198 0.683371 0 0 0
179 3 0.217259 0.498186 0.883318 0 0 0
189 3 0.227802 0.186057 0.687554 0 0 0
207 3 0.0460931 0.223908 0.818243 0 0 0
230 3 0.0321542 0.379605 0.977817 0 0 0
249 3 0.0954258 0.00747538 0.905236 0 0 0
253 3 0.199437 0.00928554 0.807938 0 0 0
259 3 0.214807 0.121022 0.9377 0 0 0
271 3 0.0441291 0.00177714 0.671847 0 1 0
28 2 0.620583 0.329749 0.742594 0 0 0
33 2 0.34593 0.165975 0.912797 0 0 0
41 2 0.459574 0.163966 0.774318 0 0 0
50 2 0.445329 0.496304 0.755517 0 0 0
57 2 0.50341 0.332809 0.923369 0 0 0
106 2 0.62754 0.0127442 0.735449 0 0 0
143 3 0.455481 0.492844 0.889834 0 0 0
147 3 0.345463 0.499151 0.801491 0 0 0
168 3 0.426313 0.306196 0.714594 0 0 0
173 3 0.580051 0.18145 0.687764 0 0 0
200 3 0.342018 0.129632 0.797792 0 0 0
204 3 0.39459 0.294862 0.984085 0 0 0
214 3 0.546184 0.278496 0.821092 0 0 0
222 3 0.423275 0.260978 0.860193 0 0 0
225 3 0.441109 0.00704659 0.891534 0 0 0
231 3 0.532767 0.120299 0.978329 0 0 0
247 3 0.595222 0.491867 0.911219 0 0 0
7 1 0.680002 0.497121 0.900466 -1 0 0
17 2 0.793942 0.499526 0.737024 -1 0 0
32 2 0.846283 0.332456 0.912283 -1 0 0
40 2 0.959671 0.335647 0.772572 -1 0 0
52 2 0.948219 0.00239536 0.75438 -1 1 0
61 2 0.785908 0.169473 0.748034 -1 0 0
100 2 0.678046 0.167738 0.905924 -1 0 0
117 3 0.783875 0.189262 0.879761 -1 0 0
131 3 0.728969 0.0140165 0.70559 0 0 0
141 3 0.955817 0.00686015 0.889073 -1 0 0
145 3 0.845619 0.000260474 0.797401 -1 1 0
157 3 0.675964 0.186973 0.789874 0 0 0
161 3 0.928069 0.193433 0.71241 -1 0 0
177 3 0.716653 0.000974431 0.881435 -1 0 0
188 3 0.726173 0.317907 0.688874 0 0 0
193 3 0.84228 0.369383 0.79734 -1 0 0
203 3 0.894692 0.201755 0.982237 -1 0 0
215 3 0.924039 0.239645 0.858789 -1 0 0
223 3 0.942518 0.494604 0.889643 -1 0 0
245 3 0.899705 0.493809 0.681897 -1 0 0
251 3 0.697632 0.491708 0.811991 -1 0 0
258 3 0.715639 0.378019 0.940379 -1 0 0
1 1 0.0184934 0.505211 0.930632 0 0 0
19 2 0.29577 0.999428 0.734977 0 -1 0
24 2 0.12599 0.830216 0.735173 0 0 0
53 2 0.00295557 0.845326 0.921882 0 0 0
65 2 0.292018 0.684763 0.752531 0 0 0
104 2 0.175011 0.665319 0.899535 0 0 0
121 3 0.286298 0.679729 0.878406 0 0 0
153 3 0.18184 0.689779 0.786448 0 0 0
169 3 0.0778038 0.687249 0.682097 0 0 0
192 3 0.232523 0.818178 0.683483 0 0 0
197 3 0.330794 0.855175 0.792672 0 0 0
210 3 0.0501248 0.788508 0.813603 0 0 0
227 3 0.0195889 0.627852 0.981794 0 0 0
235 3 0.0812596 0.517738 0.870429 0 0 0
262 3 0.212311 0.877227 0.931139 0 0 0
3 1 0.517852 0.994979 0.931304 0 0 0
25 2 0.625657 0.663741 0.737354 0 0 0
36 2 0.349663 0.823597 0.913423 0 0 0
44 2 0.474938 0.82356 0.76899 0 0 0
60 2 0.502166 0.654222 0.923453 0 0 0
70 2 0.334622 0.503707 0.911241 0 0 0
165 3 0.427162 0.688745 0.714427 0 0 0
176 3 0.575481 0.805001 0.685748 0 0 0
206 3 0.396204 0.662152 0.96813 0 0 0
211 3 0.550185 0.70469 0.815942 0 0 0
219 3 0.43169 0.741977 0.856152 0 0 0
234 3 0.518905 0.8722 0.982361 0 0 0
237 3 0.57949 0.981213 0.870105 0 0 0
284 3 0.409064 0.99969 0.692123 0 -1 0
29 2 0.850445 0.677875 0.914622 -1 0 0
37 2 0.971706 0.674828 0.768619 -1 0 0
64 2 0.791259 0.813731 0.749515 -1 0 0
72 2 0.834105 0.998748 0.907211 -1 0 0
97 2 0.676194 0.832354 0.900049 -1 0 0
120 3 0.786293 0.818902 0.879355 -1 0 0
160 3 0.682033 0.801903 0.787081 0 0 0
164 3 0.929524 0.810999 0.711129 -1 0 0
185 3 0.731754 0.67535 0.68311 0 0 0
196 3 0.834452 0.645458 0.789764 -1 0 0
201 3 0.899032 0.83414 0.968728 -1 0 0
218 3 0.930755 0.761457 0.854376 -1 0 0
255 3 0.711962 0.622745 0.934899 -1 0 0
