# STO frame

        4 atoms

        1  atom types

0 5.73 xlo xhi
0 5.73 ylo yhi
0 5.73 zlo zhi

Masses

1 36.0


Atoms

1 1 1 0.0 0.0 0.0 0.0
2 1 1 0.0 2.86 2.86 0.0
3 1 1 0.0 2.86 0.0 2.86
4 1 1 0.0 0.0 2.86 2.86