ITEM: TIMESTEP
0
ITEM: NUMBER OF ATOMS
286
ITEM: BOX BOUNDS pp pp pp
0.0000000000000000e+00 2.0029380798300000e+01
0.0000000000000000e+00 1.1596211433400001e+01
0.0000000000000000e+00 1.9680415410399998e+01
ITEM: ATOMS id type xu yu zu
20 2 6.40868 0.0144393 5.2709
35 2 5.61275 1.74024 1.73899
43 2 3.23757 1.97223 4.33547
59 2 2.00465 3.91909 1.61648
66 2 6.59874 3.83747 4.99311
122 3 6.64374 3.57065 2.30185
144 3 3.20614 5.65051 2.09208
166 3 3.8404 3.65193 5.51046
175 3 0.675634 2.07402 6.26778
198 3 5.51579 1.64533 4.1467
212 3 1.46549 3.33499 3.62184
220 3 3.83255 2.88926 2.38893
233 3 1.88872 1.37555 0.38396
246 3 4.23699 0.0872275 6.23682
248 3 0.444861 5.75876 2.03715
274 3 1.46042 5.74712 6.46011
23 2 9.88517 1.95219 5.1402
38 2 13.2317 3.83122 4.30519
54 2 12.0319 1.88823 1.56764
103 2 8.77976 3.87453 1.88018
107 2 9.82411 5.64027 5.23844
130 3 7.7896 5.68866 5.79565
142 3 13.2235 0.153825 2.06968
154 3 8.83722 3.61047 4.14842
170 3 10.738 3.66643 6.17401
180 3 7.9532 5.7828 2.34801
191 3 7.79818 2.11438 6.14338
209 3 11.4566 2.43492 3.56686
228 3 11.8909 4.41809 0.387756
250 3 10.463 0.0378283 1.91919
254 3 8.30559 0.104512 3.75674
261 3 8.12014 1.38222 1.22147
26 2 -0.145873 3.80387 5.19476
30 2 15.6273 4.07631 1.75649
63 2 16.5925 1.99075 4.88935
98 2 18.8199 1.92464 1.90251
105 2 -0.296994 0.0945224 5.29433
119 3 16.6842 2.268 2.38163
132 3 17.6704 0.098266 5.7626
159 3 -1.18549 2.14078 4.16271
163 3 13.8493 2.14062 5.46974
178 3 17.9593 0.0307496 2.30276
186 3 -2.23141 3.68297 6.15233
195 3 15.5044 4.16591 4.14747
217 3 13.8541 2.90356 2.3658
252 3 18.2881 5.68313 3.8281
256 3 18.1402 4.43949 1.26504
283 3 14.0496 5.78005 6.01361
4 1 1.9576 11.5268 1.35912
34 2 5.31094 9.52021 1.67157
42 2 2.95467 9.62656 4.51917
49 2 3.35979 5.8391 4.81994
58 2 2.28656 7.5976 1.53902
67 2 6.52581 7.97182 4.92655
69 2 5.67811 5.85345 1.84161
123 3 6.61061 7.89933 2.37599
148 3 5.41528 5.83003 3.97504
167 3 3.72031 8.05645 5.73487
174 3 0.741017 9.46904 6.2585
199 3 5.62213 9.95123 4.15998
205 3 4.36265 7.73171 0.632758
213 3 1.29869 8.38196 3.62234
221 3 3.76898 8.45581 2.9296
226 3 3.40508 11.4869 2.30184
232 3 1.87498 10.0791 0.395048
238 3 0.5987 -0.0501064 2.44464
2 1 11.9804 5.87203 1.34996
10 1 8.74514 11.59 2.0478
22 2 9.86128 9.65096 5.1476
39 2 12.9072 7.78649 4.49752
55 2 12.3129 9.81072 1.50114
102 2 8.82918 7.72162 1.95311
155 3 8.67922 8.10387 4.16906
171 3 10.8069 7.99585 6.17176
190 3 7.72318 9.57116 6.23243
208 3 11.3083 9.10625 3.57057
229 3 11.9141 7.31361 0.375783
236 3 10.6319 5.881 2.44614
260 3 8.1138 10.1443 1.35452
8 1 18.7525 5.81131 2.12533
18 2 16.3892 5.80888 5.29139
27 2 -0.166925 7.81369 5.1842
31 2 15.3371 7.87372 1.69646
51 2 13.4244 11.5438 4.78882
62 2 16.5201 9.44947 4.85827
71 2 15.6802 11.5335 1.75753
99 2 18.8685 9.70338 1.95655
118 3 16.6307 9.52004 2.38669
146 3 15.427 11.588 3.89127
158 3 -1.32422 9.40204 4.17983
162 3 13.7834 9.33271 5.67461
187 3 -2.31278 7.90856 6.21434
194 3 15.6887 7.44913 4.09472
202 3 14.4436 9.72186 0.64292
216 3 13.771 8.92848 2.89565
224 3 13.4357 5.89963 2.28462
257 3 18.1397 7.26541 1.43206
6 1 4.02774 0.0335545 7.96803
11 1 1.5052 0.0247222 11.6148
14 1 0.816125 5.77243 8.05947
48 2 5.19676 5.76749 11.3806
73 2 1.72048 4.03509 11.2653
78 2 0.591697 1.76239 8.44272
87 2 4.10845 4.04213 7.95124
96 2 4.82735 1.95772 11.381
116 3 3.83881 3.79731 10.7491
137 3 6.3488 3.49506 11.6827
139 3 6.16947 3.69787 7.50511
152 3 5.08291 5.73848 9.12966
242 3 4.75804 1.43969 8.66297
244 3 2.32639 0.00518111 8.31358
263 3 2.40717 1.49545 11.4533
275 3 0.212927 0.00390194 10.4526
278 3 2.09305 5.73077 9.23167
12 1 10.7503 11.6067 8.11371
13 1 11.6128 5.78007 11.5634
75 2 10.7689 3.9328 8.38861
80 2 11.6013 1.85376 11.3166
85 2 8.38227 4.03473 11.7514
94 2 7.46988 2.08177 8.26393
114 3 8.58893 3.78422 8.88976
151 3 7.49171 5.78196 10.542
183 3 7.72614 5.77227 13.0139
265 3 9.75816 1.41635 7.99473
270 3 12.551 4.33669 11.685
272 3 11.7619 11.6246 6.72338
276 3 11.7043 0.0715291 9.56097
277 3 10.655 5.73969 10.1134
279 3 13.212 4.39911 8.35014
281 3 9.14402 1.4171 11.3568
5 1 -1.72686 5.77579 11.7023
46 2 15.0256 0.00419619 11.3576
82 2 13.9883 1.71656 7.84877
84 2 -1.78434 1.80302 11.7046
89 2 14.8562 3.73226 11.4458
91 2 -2.54282 3.81111 8.30284
109 3 13.767 2.0211 10.7847
111 3 -1.54332 1.98123 8.91239
134 3 16.0175 2.27088 7.7583
136 3 -3.8522 2.10656 12.1193
149 3 -2.76437 0.0319112 10.5325
150 3 14.8681 0.0458617 9.11157
181 3 -2.10388 0.0223343 12.9397
240 3 -2.40523 4.35236 10.9892
268 3 -0.157063 4.34367 8.19591
76 2 1.71594 7.60513 11.2818
79 2 0.619206 9.78515 8.41568
86 2 4.09221 7.57978 7.99925
93 2 4.88853 9.6314 11.3069
113 3 3.84051 7.80419 10.7453
125 3 2.61963 5.82525 12.0994
138 3 6.17487 7.88794 7.68233
140 3 6.38933 8.09358 11.6671
184 3 4.42557 5.82113 6.72153
241 3 4.77621 10.1927 8.57239
266 3 2.47217 10.1915 11.4713
16 1 8.3097 -0.0127631 11.8767
47 2 7.33746 5.81711 8.30828
74 2 10.7734 7.70016 8.34725
77 2 11.5911 9.68688 11.3349
88 2 8.40855 7.51141 11.7535
95 2 7.46691 9.52639 8.35245
115 3 8.61344 7.79503 8.8798
126 3 10.1973 5.804 7.49325
127 3 12.1777 -0.0290071 12.205
264 3 9.82511 10.1473 8.06925
267 3 12.5837 7.20587 11.5981
273 3 10.6017 5.82064 12.9509
280 3 13.2515 7.27219 8.28883
282 3 9.12943 10.1363 11.3787
286 3 6.69143 -0.000454174 11.294
15 1 14.0226 5.81099 7.76026
45 2 -2.85564 11.567 8.28733
81 2 -1.76578 9.86233 11.6777
83 2 13.9436 9.83779 7.947
90 2 -2.53128 7.73718 8.3682
92 2 14.9237 7.88034 11.3264
110 3 -1.50498 9.57726 8.93232
112 3 13.755 9.59713 10.7868
128 3 -0.28798 11.5723 7.60211
133 3 -3.83848 9.51977 12.032
135 3 15.9665 9.26608 8.09288
182 3 14.6208 11.5569 6.63476
239 3 -2.46477 7.19723 11.0488
243 3 -0.0125651 5.82201 11.4271
269 3 -0.0906083 7.24177 8.2041
285 3 15.6864 5.80573 8.21796
9 1 3.61484 0.0294485 17.6379
21 2 2.45097 2.00983 14.5582
56 2 0.0850906 1.93441 18.1277
68 2 5.75045 3.80492 14.8471
101 2 3.54078 3.85762 17.8181
108 2 2.65087 5.69808 14.4141
124 3 5.66901 3.57922 17.29
129 3 4.70829 5.63244 13.9144
156 3 3.54093 3.66773 15.5469
172 3 1.64699 3.73627 13.449
179 3 4.35156 5.77707 17.3841
189 3 4.56273 2.15756 13.5313
207 3 0.923217 2.59648 16.1034
230 3 0.644029 4.40198 19.2438
249 3 1.91132 0.086686 17.8154
253 3 3.9946 0.107677 15.9006
259 3 4.30245 1.40339 18.4543
271 3 0.883878 11.6168 13.2222
28 2 12.4299 3.82384 14.6146
33 2 6.92877 1.92468 17.9642
41 2 9.20499 1.90139 15.2389
50 2 8.91967 5.75525 14.8689
57 2 10.083 3.85933 18.1723
106 2 12.5692 0.147784 14.4739
143 3 9.12301 5.71513 17.5123
147 3 6.91941 5.78826 15.7737
168 3 8.53878 3.55071 14.0635
173 3 11.6181 2.10414 13.5355
200 3 6.8504 1.50324 15.7009
204 3 7.90339 3.41928 19.3672
214 3 10.9397 3.22949 16.1594
222 3 8.47794 3.02636 16.929
225 3 8.83515 0.0817137 17.5458
231 3 10.671 1.39501 19.2539
247 3 11.9219 5.70379 17.9332
7 1 -6.40936 5.76472 17.7215
17 2 -4.12721 5.79261 14.5049
32 2 -3.07886 3.85523 17.9541
40 2 -0.807761 3.89223 15.2045
52 2 -1.03714 11.624 14.8465
61 2 -4.28813 1.96524 14.7216
100 2 -6.44853 1.94512 17.829
117 3 -4.32884 2.19472 17.3141
131 3 14.6008 0.162539 13.8863
141 3 -0.884965 0.0795517 17.4973
145 3 -3.09215 11.5992 15.6932
157 3 13.5391 2.16818 15.545
161 3 -1.44074 2.24309 14.0205
177 3 -5.67527 0.0112997 17.347
188 3 14.5448 3.68652 13.5573
193 3 -3.15903 4.28345 15.692
203 3 -2.10926 2.3396 19.3308
215 3 -1.52146 2.77898 16.9013
223 3 -1.15133 5.73553 17.5085
245 3 -2.00884 5.72632 13.42
251 3 -6.05624 5.70195 15.9803
258 3 -5.69558 4.38359 18.507
1 1 0.370411 5.85854 18.3152
19 2 5.9241 -0.00663413 14.4646
24 2 2.52349 9.62736 14.4685
53 2 0.0591982 9.80258 18.143
65 2 5.84894 7.94066 14.8101
104 2 3.50537 7.71518 17.7032
121 3 5.73436 7.88228 17.2874
153 3 3.64215 7.99882 15.4776
169 3 1.55836 7.96948 13.424
192 3 4.65729 9.48776 13.4512
197 3 6.62561 9.9168 15.6001
210 3 1.00397 9.14371 16.012
227 3 0.392354 7.28071 19.3221
235 3 1.62758 6.0038 17.1304
262 3 4.25245 10.1725 18.3252
3 1 10.3723 11.538 18.3284
25 2 12.5315 7.69688 14.5114
36 2 7.00354 9.5506 17.9765
44 2 9.51271 9.55017 15.134
60 2 10.0581 7.5865 18.1739
70 2 6.70228 5.8411 17.9336
165 3 8.55579 7.98683 14.0602
176 3 11.5265 9.33496 13.4958
206 3 7.93571 7.67846 19.0532
211 3 11.0199 8.17173 16.0581
219 3 8.64649 8.60413 16.8494
234 3 10.3933 10.1142 19.3333
237 3 11.6068 11.3783 17.124
284 3 8.19331 -0.00360052 13.6213
29 2 -2.99549 7.86078 18.0001
37 2 -0.566706 7.82545 15.1267
64 2 -4.18095 9.4362 14.7508
72 2 -3.32278 11.5817 17.8543
97 2 -6.48563 9.65215 17.7133
120 3 -4.28043 9.49616 17.3061
160 3 13.6607 9.29904 15.4901
164 3 -1.41159 9.40451 13.9953
185 3 14.6566 7.8315 13.4439
196 3 -3.31582 7.48487 15.5429
201 3 -2.02233 9.67287 19.065
218 3 -1.38694 8.83001 16.8145
255 3 -5.76923 7.22149 18.3992
ITEM: TIMESTEP
1
ITEM: NUMBER OF ATOMS
286
ITEM: BOX BOUNDS pp pp pp
0.0000000000000000e+00 2.0029380798300000e+01
0.0000000000000000e+00 1.1596211433400001e+01
0.0000000000000000e+00 1.9680415410399998e+01
ITEM: ATOMS id type xu yu zu
20 2 6.40868 0.0144393 5.2709
35 2 5.61275 1.74024 1.73899
43 2 3.23757 1.97223 4.33547
59 2 2.00465 3.91909 1.61648
66 2 6.59874 3.83747 4.99311
122 3 6.64374 3.57065 2.30185
144 3 3.20614 5.65051 2.09208
166 3 3.8404 3.65193 5.51046
175 3 0.675634 2.07402 6.26778
198 3 5.51579 1.64533 4.1467
212 3 1.46549 3.33499 3.62184
220 3 3.83255 2.88926 2.38893
233 3 1.88872 1.37555 0.38396
246 3 4.23699 0.0872275 6.23682
248 3 0.444861 5.75876 2.03715
274 3 1.46042 5.74712 6.46011
23 2 9.88517 1.95219 5.1402
38 2 13.2317 3.83122 4.30519
54 2 12.0319 1.88823 1.56764
103 2 8.77976 3.87453 1.88018
107 2 9.82411 5.64027 5.23844
130 3 7.7896 5.68866 5.79565
142 3 13.2235 0.153825 2.06968
154 3 8.83722 3.61047 4.14842
170 3 10.738 3.66643 6.17401
180 3 7.9532 5.7828 2.34801
191 3 7.79818 2.11438 6.14338
209 3 11.4566 2.43492 3.56686
228 3 11.8909 4.41809 0.387756
250 3 10.463 0.0378283 1.91919
254 3 8.30559 0.104512 3.75674
261 3 8.12014 1.38222 1.22147
26 2 -0.145873 3.80387 5.19476
30 2 15.6273 4.07631 1.75649
63 2 16.5925 1.99075 4.88935
98 2 18.8199 1.92464 1.90251
105 2 -0.296994 0.0945224 5.29433
119 3 16.6842 2.268 2.38163
132 3 17.6704 0.098266 5.7626
159 3 -1.18549 2.14078 4.16271
163 3 13.8493 2.14062 5.46974
178 3 17.9593 0.0307496 2.30276
186 3 -2.23141 3.68297 6.15233
195 3 15.5044 4.16591 4.14747
217 3 13.8541 2.90356 2.3658
252 3 18.2881 5.68313 3.8281
256 3 18.1402 4.43949 1.26504
283 3 14.0496 5.78005 6.01361
4 1 1.9576 11.5268 1.35912
34 2 5.31094 9.52021 1.67157
42 2 2.95467 9.62656 4.51917
49 2 3.35979 5.8391 4.81994
58 2 2.28656 7.5976 1.53902
67 2 6.52581 7.97182 4.92655
69 2 5.67811 5.85345 1.84161
123 3 6.61061 7.89933 2.37599
148 3 5.41528 5.83003 3.97504
167 3 3.72031 8.05645 5.73487
174 3 0.741017 9.46904 6.2585
199 3 5.62213 9.95123 4.15998
205 3 4.36265 7.73171 0.632758
213 3 1.29869 8.38196 3.62234
221 3 3.76898 8.45581 2.9296
226 3 3.40508 11.4869 2.30184
232 3 1.87498 10.0791 0.395048
238 3 0.5987 -0.0501064 2.44464
2 1 11.9804 5.87203 1.34996
10 1 8.74514 11.59 2.0478
22 2 9.86128 9.65096 5.1476
39 2 12.9072 7.78649 4.49752
55 2 12.3129 9.81072 1.50114
102 2 8.82918 7.72162 1.95311
155 3 8.67922 8.10387 4.16906
171 3 10.8069 7.99585 6.17176
190 3 7.72318 9.57116 6.23243
208 3 11.3083 9.10625 3.57057
229 3 11.9141 7.31361 0.375783
236 3 10.6319 5.881 2.44614
260 3 8.1138 10.1443 1.35452
8 1 18.7525 5.81131 2.12533
18 2 16.3892 5.80888 5.29139
27 2 -0.166925 7.81369 5.1842
31 2 15.3371 7.87372 1.69646
51 2 13.4244 11.5438 4.78882
62 2 16.5201 9.44947 4.85827
71 2 15.6802 11.5335 1.75753
99 2 18.8685 9.70338 1.95655
118 3 16.6307 9.52004 2.38669
146 3 15.427 11.588 3.89127
158 3 -1.32422 9.40204 4.17983
162 3 13.7834 9.33271 5.67461
187 3 -2.31278 7.90856 6.21434
194 3 15.6887 7.44913 4.09472
202 3 14.4436 9.72186 0.64292
216 3 13.771 8.92848 2.89565
224 3 13.4357 5.89963 2.28462
257 3 18.1397 7.26541 1.43206
6 1 4.02774 0.0335545 7.96803
11 1 1.5052 0.0247222 11.6148
14 1 0.816125 5.77243 8.05947
48 2 5.19676 5.76749 11.3806
73 2 1.72048 4.03509 11.2653
78 2 0.591697 1.76239 8.44272
87 2 4.10845 4.04213 7.95124
96 2 4.82735 1.95772 11.381
116 3 3.83881 3.79731 10.7491
137 3 6.3488 3.49506 11.6827
139 3 6.16947 3.69787 7.50511
152 3 5.08291 5.73848 9.12966
242 3 4.75804 1.43969 8.66297
244 3 2.32639 0.00518111 8.31358
263 3 2.40717 1.49545 11.4533
275 3 0.212927 0.00390194 10.4526
278 3 2.09305 5.73077 9.23167
12 1 10.7503 11.6067 8.11371
13 1 11.6128 5.78007 11.5634
75 2 10.7689 3.9328 8.38861
80 2 11.6013 1.85376 11.3166
85 2 8.38227 4.03473 11.7514
94 2 7.46988 2.08177 8.26393
114 3 8.58893 3.78422 8.88976
151 3 7.49171 5.78196 10.542
183 3 7.72614 5.77227 13.0139
265 3 9.75816 1.41635 7.99473
270 3 12.551 4.33669 11.685
272 3 11.7619 11.6246 6.72338
276 3 11.7043 0.0715291 9.56097
277 3 10.655 5.73969 10.1134
279 3 13.212 4.39911 8.35014
281 3 9.14402 1.4171 11.3568
5 1 -1.72686 5.77579 11.7023
46 2 15.0256 0.00419619 11.3576
82 2 13.9883 1.71656 7.84877
84 2 -1.78434 1.80302 11.7046
89 2 14.8562 3.73226 11.4458
91 2 -2.54282 3.81111 8.30284
109 3 13.767 2.0211 10.7847
111 3 -1.54332 1.98123 8.91239
134 3 16.0175 2.27088 7.7583
136 3 -3.8522 2.10656 12.1193
149 3 -2.76437 0.0319112 10.5325
150 3 14.8681 0.0458617 9.11157
181 3 -2.10388 0.0223343 12.9397
240 3 -2.40523 4.35236 10.9892
268 3 -0.157063 4.34367 8.19591
76 2 1.71594 7.60513 11.2818
79 2 0.619206 9.78515 8.41568
86 2 4.09221 7.57978 7.99925
93 2 4.88853 9.6314 11.3069
113 3 3.84051 7.80419 10.7453
125 3 2.61963 5.82525 12.0994
138 3 6.17487 7.88794 7.68233
140 3 6.38933 8.09358 11.6671
184 3 4.42557 5.82113 6.72153
241 3 4.77621 10.1927 8.57239
266 3 2.47217 10.1915 11.4713
16 1 8.3097 -0.0127631 11.8767
47 2 7.33746 5.81711 8.30828
74 2 10.7734 7.70016 8.34725
77 2 11.5911 9.68688 11.3349
88 2 8.40855 7.51141 11.7535
95 2 7.46691 9.52639 8.35245
115 3 8.61344 7.79503 8.8798
126 3 10.1973 5.804 7.49325
127 3 12.1777 -0.0290071 12.205
264 3 9.82511 10.1473 8.06925
267 3 12.5837 7.20587 11.5981
273 3 10.6017 5.82064 12.9509
280 3 13.2515 7.27219 8.28883
282 3 9.12943 10.1363 11.3787
286 3 6.69143 -0.000454174 11.294
15 1 14.0226 5.81099 7.76026
45 2 -2.85564 11.567 8.28733
81 2 -1.76578 9.86233 11.6777
83 2 13.9436 9.83779 7.947
90 2 -2.53128 7.73718 8.3682
92 2 14.9237 7.88034 11.3264
110 3 -1.50498 9.57726 8.93232
112 3 13.755 9.59713 10.7868
128 3 -0.28798 11.5723 7.60211
133 3 -3.83848 9.51977 12.032
135 3 15.9665 9.26608 8.09288
182 3 14.6208 11.5569 6.63476
239 3 -2.46477 7.19723 11.0488
243 3 -0.0125651 5.82201 11.4271
269 3 -0.0906083 7.24177 8.2041
285 3 15.6864 5.80573 8.21796
9 1 3.61484 0.0294485 17.6379
21 2 2.45097 2.00983 14.5582
56 2 0.0850906 1.93441 18.1277
68 2 5.75045 3.80492 14.8471
101 2 3.54078 3.85762 17.8181
108 2 2.65087 5.69808 14.4141
124 3 5.66901 3.57922 17.29
129 3 4.70829 5.63244 13.9144
156 3 3.54093 3.66773 15.5469
172 3 1.64699 3.73627 13.449
179 3 4.35156 5.77707 17.3841
189 3 4.56273 2.15756 13.5313
207 3 0.923217 2.59648 16.1034
230 3 0.644029 4.40198 19.2438
249 3 1.91132 0.086686 17.8154
253 3 3.9946 0.107677 15.9006
259 3 4.30245 1.40339 18.4543
271 3 0.883878 11.6168 13.2222
28 2 12.4299 3.82384 14.6146
33 2 6.92877 1.92468 17.9642
41 2 9.20499 1.90139 15.2389
50 2 8.91967 5.75525 14.8689
57 2 10.083 3.85933 18.1723
106 2 12.5692 0.147784 14.4739
143 3 9.12301 5.71513 17.5123
147 3 6.91941 5.78826 15.7737
168 3 8.53878 3.55071 14.0635
173 3 11.6181 2.10414 13.5355
200 3 6.8504 1.50324 15.7009
204 3 7.90339 3.41928 19.3672
214 3 10.9397 3.22949 16.1594
222 3 8.47794 3.02636 16.929
225 3 8.83515 0.0817137 17.5458
231 3 10.671 1.39501 19.2539
247 3 11.9219 5.70379 17.9332
7 1 -6.40936 5.76472 17.7215
17 2 -4.12721 5.79261 14.5049
32 2 -3.07886 3.85523 17.9541
40 2 -0.807761 3.89223 15.2045
52 2 -1.03714 11.624 14.8465
61 2 -4.28813 1.96524 14.7216
100 2 -6.44853 1.94512 17.829
117 3 -4.32884 2.19472 17.3141
131 3 14.6008 0.162539 13.8863
141 3 -0.884965 0.0795517 17.4973
145 3 -3.09215 11.5992 15.6932
157 3 13.5391 2.16818 15.545
161 3 -1.44074 2.24309 14.0205
177 3 -5.67527 0.0112997 17.347
188 3 14.5448 3.68652 13.5573
193 3 -3.15903 4.28345 15.692
203 3 -2.10926 2.3396 19.3308
215 3 -1.52146 2.77898 16.9013
223 3 -1.15133 5.73553 17.5085
245 3 -2.00884 5.72632 13.42
251 3 -6.05624 5.70195 15.9803
258 3 -5.69558 4.38359 18.507
1 1 0.370411 5.85854 18.3152
19 2 5.9241 -0.00663413 14.4646
24 2 2.52349 9.62736 14.4685
53 2 0.0591982 9.80258 18.143
65 2 5.84894 7.94066 14.8101
104 2 3.50537 7.71518 17.7032
121 3 5.73436 7.88228 17.2874
153 3 3.64215 7.99882 15.4776
169 3 1.55836 7.96948 13.424
192 3 4.65729 9.48776 13.4512
197 3 6.62561 9.9168 15.6001
210 3 1.00397 9.14371 16.012
227 3 0.392354 7.28071 19.3221
235 3 1.62758 6.0038 17.1304
262 3 4.25245 10.1725 18.3252
3 1 10.3723 11.538 18.3284
25 2 12.5315 7.69688 14.5114
36 2 7.00354 9.5506 17.9765
44 2 9.51271 9.55017 15.134
60 2 10.0581 7.5865 18.1739
70 2 6.70228 5.8411 17.9336
165 3 8.55579 7.98683 14.0602
176 3 11.5265 9.33496 13.4958
206 3 7.93571 7.67846 19.0532
211 3 11.0199 8.17173 16.0581
219 3 8.64649 8.60413 16.8494
234 3 10.3933 10.1142 19.3333
237 3 11.6068 11.3783 17.124
284 3 8.19331 -0.00360052 13.6213
29 2 -2.99549 7.86078 18.0001
37 2 -0.566706 7.82545 15.1267
64 2 -4.18095 9.4362 14.7508
72 2 -3.32278 11.5817 17.8543
97 2 -6.48563 9.65215 17.7133
120 3 -4.28043 9.49616 17.3061
160 3 13.6607 9.29904 15.4901
164 3 -1.41159 9.40451 13.9953
185 3 14.6566 7.8315 13.4439
196 3 -3.31582 7.48487 15.5429
201 3 -2.02233 9.67287 19.065
218 3 -1.38694 8.83001 16.8145
255 3 -5.76923 7.22149 18.3992
