/work4/scd/scarf781/jobs/Bi92V16O178_Bettina/iso/APDworkdir/potMD/pbe/UserSupplied/MTP1C//8_simulation/temp1700/POSCAR.lmp (written by ASE) 

286 	 atoms 
3  atom types
0.0           20.0293807983  xlo xhi
0.0      11.596211433400001  ylo yhi
0.0      19.680415410399998  zlo zhi
                      0     -7.6875842777000001                       0  xy xz yz

Masses

            1   50.942000       # V
            2   208.980000       # Bi
            3   15.999000       # O

Atoms 

     1   1     0.37041117696907744      5.8585371765452718      18.315229581831577
     2   1      11.980373049117691      5.8720345842563981      1.3499626266272382
     3   1      10.372253325400603      11.537985584741076       18.32844030586913
     4   1      1.9576015923204815      11.526791158964587      1.3591194636000843
     5   1      -1.726856604209094      5.7757868362816547      11.702278613502276
     6   1        4.02774308488278    0.033554520345075389      7.9680323631411527
     7   1     -6.4093605442606814       5.764719977349519      17.721537332033904
     8   1      18.752463877403269      5.8113068701231221      2.1253325065502731
     9   1      3.6148387805496522    0.029448483919369235       17.63794494600366
    10   1      8.7451406841780326      11.590008285812461      2.0478018870276684
    11   1      1.5052027567219222    0.024722199561138851      11.614786881583235
    12   1       10.75025043496694      11.606708646767391      8.1137086236031415
    13   1      11.612847364598425      5.7800712361588404      11.563396116975589
    14   1     0.81612533624522321        5.77242770881419      8.0594686647406277
    15   1      14.022599380869311      5.8109916287793588      7.7602561601423732
    16   1      8.3097049479092107   -0.012763122045973475      11.876743011875652
    17   2     -4.1272107192771132      5.7926128246140376      14.504929912295459
    18   2      16.389243047288989      5.8088767099981737      5.2913945912619242
    19   2      5.9240978259675776  -0.0066341266893025184      14.464648591046002
    20   2       6.408680188126274    0.014439290695247485      5.2709015029676216
    21   2      2.4509744492309746      2.0098266377707512      14.558213437130702
    22   2      9.8612828810925244      9.6509551760151222      5.1475979825111597
    23   2      9.8851721022038372      1.9521893896596783      5.1402002575962111
    24   2       2.523491962612999      9.6273646267562736      14.468517668628065
    25   2      12.531529457065234      7.6968801557746271      14.511424711497355
    26   2    -0.14587279104741224      3.8038663437468876      5.1947600329368075
    27   2    -0.16692485059785889      7.8136872891691178      5.1842046239476032
    28   2      12.429887551513009      3.8238404767963505       14.61456669410215
    29   2      -2.995492571467425      7.8607769026289027      18.000134135883876
    30   2      15.627303789694889      4.0763123047336158      1.7564942827935393
    31   2      15.337086930189418      7.8737150584890427      1.6964551887932193
    32   2     -3.0788621100144575      3.8552342976399041      17.954104289562768
    33   2      6.9287713871301886      1.9246836634150011      17.964233011861001
    34   2      5.3109362293526594      9.5202148911297506      1.6715686820009936
    35   2      5.6127530888326316      1.7402398192378383      1.7389924961605694
    36   2      7.0035393416917406       9.550601209064828      17.976549511841057
    37   2    -0.56670638319541666        7.82544988244089      15.126746676231425
    38   2      13.231703671099925      3.8312184104525362      4.3051877793900282
    39   2      12.907195150675966      7.7864904684565373      4.4975168093558846
    40   2    -0.80776120622658798      3.8922295459415523      15.204541111006854
    41   2      9.2049852083353301      1.9013897318097057      15.238895898668508
    42   2      2.9546655539755724      9.6265587527407952      4.5191707126660976
    43   2      3.2375666307600826      1.9722275048234228      4.3354664312845612
    44   2      9.5127104956490669      9.5501716593919319       15.13404541757957
    45   2     -2.8556353749519108      11.567002744222389      8.2873282702858706
    46   2      15.025555223824666   0.0041961919999748444      11.357603417114996
    47   2      7.3374632019972807       5.817108849837334      8.3082802922590364
    48   2      5.1967621154914694      5.7674891907380603      11.380594734397409
    49   2      3.3597860088981615      5.8390992398079016      4.8199417321021647
    50   2      8.9196698773342398      5.7552457036917488      14.868882740582681
    51   2      13.424411243316893      11.543773554123387      4.7888247422102674
    52   2     -1.0371379200268267      11.623988571885731      14.846507069201062
    53   2    0.059198185128251701       9.802575612963647      18.143023937472897
    54   2      12.031882313475331      1.8882287234082955      1.5676355247196136
    55   2      12.312870215893128      9.8107206726637877      1.5011375530309121
    56   2     0.08509057123390118      1.9344089377628617      18.127665051475137
    57   2      10.082989293554206      3.8593267946812362      18.172285462833816
    58   2      2.2865598995101304      7.5975999014042515        1.53901967123825
    59   2      2.0046516089590076      3.9190916824771604       1.616478580484545
    60   2      10.058066919006219      7.5864978099584315      18.173941135204817
    61   2     -4.2881301273147256      1.9652390679351837      14.721629676797537
    62   2      16.520132921982992      9.4494700991765939      4.8582669986410716
    63   2      16.592500479011527      1.9907506064998695       4.889347201151379
    64   2     -4.1809531552908084      9.4361961193662154      14.750766993805964
    65   2      5.8489394098051948      7.9406619148802688      14.810115790262078
    66   2       6.598735340989947      3.8374732575939023      4.9931077855134651
    67   2      6.5258096977754221      7.9718168341968134      4.9265467066589661
    68   2      5.7504526884053062      3.8049161571875425      14.847060256662832
    69   2      5.6781076059086359      5.8534512405348629      1.8416099012215494
    70   2      6.7022786075430556      5.8410956128000411      17.933595135125493
    71   2      15.680234635829914      11.533506267588313      1.7575290591412107
    72   2     -3.3227824841939895      11.581698570810579      17.854298841425692
    73   2      1.7204800593058192      4.0350855153928782      11.265266434511329
    74   2      10.773403333991656      7.7001644404415828      8.3472539761140112
    75   2      10.768875405822421      3.9328047654990663      8.3886142587708754
    76   2      1.7159355620572985      7.6051274561608384      11.281785428303804
    77   2      11.591136701626237      9.6868844594518908      11.334865183043043
    78   2     0.59169733872773556      1.7623851851640728      8.4427230088932621
    79   2     0.61920551348043507        9.78514606773434      8.4156795781614306
    80   2      11.601296369435362      1.8537622151472437      11.316599349913606
    81   2     -1.7657789018618901      9.8623286921565221      11.677711632618458
    82   2      13.988349460619819      1.7165649300139674      7.8487659509619254
    83   2        13.9436465701716       9.837792083156879      7.9469973923716131
    84   2     -1.7843396680977284      1.8030161467461914      11.704557343466195
    85   2        8.38227288222852      4.0347291568295249      11.751365696715538
    86   2      4.0922097893401883      7.5797762986673334      7.9992468270352459
    87   2      4.1084499105880834      4.0421305502722538      7.9512445465970814
    88   2       8.408549990331931      7.5114122194774131      11.753521852474048
    89   2      14.856218222382621       3.732261774074789      11.445835175862806
    90   2     -2.5312847879668103      7.7371831077330286      8.3681965539462819
    91   2     -2.5428238059142712       3.811111775727178      8.3028440763914571
    92   2      14.923664579357787      7.8803372919829036      11.326433921679389
    93   2      4.8885334654960957      9.6314019356093628      11.306908292722058
    94   2      7.4698753426738378      2.0817683938223621      8.2639260716949892
    95   2      7.4669088360252402       9.526387823436627      8.3524456790854984
    96   2      4.8273488339798973       1.957722032928261      11.381040215587113
    97   2     -6.4856279092210718      9.6521512321748535      17.713329404017838
    98   2      18.819858336367787      1.9246351583016288      1.9025114385259139
    99   2      18.868523264688697      9.7033805669949569       1.956551628291008
   100   2      -6.448530616955126      1.9451206056799368      17.828963058189451
   101   2      3.5407755526053135       3.857617171698362      17.818081332265372
   102   2      8.8291835217214309      7.7216176686685269      1.9531060022248683
   103   2      8.7797560586525805      3.8745279821213572      1.8801787685418472
   104   2      3.5053704442073261        7.71517615504417      17.703221597105031
   105   2    -0.29699447981323246    0.094522398061917867      5.2943323073082409
   106   2      12.569230656771911     0.14778402471637089      14.473946902270825
   107   2      9.8241064250437802       5.640272981894757      5.2384378907414293
   108   2      2.6508695189662053      5.6980811820042687      14.414120653289167
   109   3      13.766963108069197      2.0211043903962596      10.784694991695478
   110   3     -1.5049810654453941      9.5772587407597438      8.9323222857890343
   111   3     -1.5433191234449377      1.9812312226145412      8.9123938729520464
   112   3      13.754974900159192      9.5971349729869857      10.786774506047879
   113   3      3.8405105548329885      7.8041899000086863      10.745334345392747
   114   3      8.5889310499974894      3.7842163850339774      8.8897582850909842
   115   3      8.6134406569393533       7.795030130051626       8.879799691927003
   116   3       3.838808905453762      3.7973080552916825      10.749063105989951
   117   3     -4.3288410949668741      2.1947235567656302      17.314054354775326
   118   3      16.630680742082035      9.5200377085026808      2.3866854040444809
   119   3       16.68421486983372      2.2680038270813174       2.381626996588404
   120   3     -4.2804264079426364      9.4961603904753353      17.306066245272827
   121   3       5.734362032705679       7.882281300861397      17.287389570824331
   122   3      6.6437361377290225      3.5706479212646949      2.3018495057209338
   123   3      6.6106114659110604      7.8993284218039825      2.3759852055138615
   124   3      5.6690061493499257      3.5792243213592503       17.29000444507021
   125   3      2.6196347180882515       5.825249793784268      12.099369776060836
   126   3      10.197272678429455      5.8040002811293636      7.4932460235497018
   127   3      12.177655729348695   -0.029007119078368088      12.205049130991695
   128   3    -0.28798026229522211      11.572313012406518      7.6021092238118362
   129   3      4.7082911342446776      5.6324386759269798      13.914401900413434
   130   3      7.7895986269183837       5.688664630066504      5.7956510608712337
   131   3      14.600800562547054     0.16253851734460734      13.886313517010278
   132   3       17.67037637022057     0.09826596073597145      5.7625997781793519
   133   3     -3.8384814241031746      9.5197664606866308      12.031982177080582
   134   3      16.017506812246985      2.2708814530839541      7.7582993435050618
   135   3      15.966479281512488      9.2660813246405898       8.092879363739474
   136   3     -3.8522034322277188      2.1065634866777825      12.119280807348975
   137   3      6.3487992953227907      3.4950570894990589      11.682724503443261
   138   3      6.1748674859564172      7.8879407017132328      7.6823293655397134
   139   3        6.16946811842831      3.6978685508020779      7.5051110494628865
   140   3      6.3893250771598762      8.0935803593521101       11.66712495827676
   141   3    -0.88496450131689919    0.079551740544407265      17.497333476291043
   142   3      13.223539576216671     0.15382514185858698      2.0696790632492386
   143   3      9.1230061912734755      5.7151256292499379      17.512293933796894
   144   3      3.2061363462467471      5.6505118995971646      2.0920838194880202
   145   3     -3.0921480528470826      11.599231939342916      15.693180507748391
   146   3      15.426971025105567      11.588039329618727      3.8912663696290082
   147   3      6.9194132997323363      5.7882554297057842      15.773675187736494
   148   3       5.415275354375253      5.8300268700510678      3.9750376988090768
   149   3     -2.7643690196069484    0.031911176844718808      10.532496513238796
   150   3      14.868139634292449    0.045861708568305903      9.1115653046250582
   151   3      7.4917134722109475      5.7819632906308795       10.54197795257291
   152   3      5.0829142087509043       5.738479091370321      9.1296563202222192
   153   3      3.6421473893945562      7.9988221451911539      15.477617491842802
   154   3      8.8372249713106736      3.6104705314047427       4.148421036171225
   155   3      8.6792237189548658      8.1038722027713561      4.1690583528487668
   156   3      3.5409275834910376      3.6677321335778563      15.546880689033644
   157   3      13.539148356432138      2.1681763918770312      15.545046155579145
   158   3     -1.3242205455036566      9.4020352554670303      4.1798289190443381
   159   3     -1.1854940664776459      2.1407807184055976      4.1627078367701449
   160   3      13.660689222936435      9.2990351663131925      15.490081205399811
   161   3     -1.4407359678855514       2.243089839217038      14.020524522660873
   162   3        13.7834013273868      9.3327116214916899      5.6746137512968531
   163   3      13.849305518680371      2.1406216562317693      5.4697350411632346
   164   3     -1.4115883094993569      9.4045143506187099      13.995318268582963
   165   3       8.555787601527415      7.9868339704003679      14.060217765792453
   166   3      3.8403989348649845      3.6519342818591056      5.5104594565156857
   167   3      3.7203090071514762      8.0564462818249698      5.7348719613492705
   168   3      8.5387798388728964      3.5507134286651718      14.063513499069098
   169   3      1.5583613548623374      7.9694792480925045      13.423951814410083
   170   3      10.738016447743965      3.6664286957907053      6.1740140562846531
   171   3      10.806933688860985      7.9958487329616705      6.1717564141775956
   172   3       1.646993573001863      3.7362731000628955      13.449032886457088
   173   3      11.618072035659765      2.1041366617487518      13.535487049703649
   174   3     0.74101650473384506      9.4690440523887069      6.2584962815124561
   175   3     0.67563405842311708      2.0740204769211932      6.2677804743044119
   176   3      11.526531325647561      9.3349634951662939      13.495805807735445
   177   3     -5.6752687897809118     0.01129970278242577      17.346998294702715
   178   3      17.959276255183465    0.030749558521362241       2.302758475844104
   179   3       4.351561718295553      5.7770743828737112      17.384063244491532
   180   3      7.9532012450111091      5.7827968923301452      2.3480132774096951
   181   3     -2.1038834567021283    0.022334298412686342      12.939747403709823
   182   3      14.620812068170974      11.556880721659414      6.6347603431438325
   183   3       7.726142917268179      5.7722673630996857      13.013852210705021
   184   3      4.4255677234779718      5.8211346269824791      6.7215319257933182
   185   3      14.656570920021444      7.8315024419115522      13.443883613273169
   186   3     -2.2314079609889541      3.6829690267741721      6.1523321246909664
   187   3     -2.3127791808633891      7.9085553822392294      6.2143373786979712
   188   3      14.544798807507334      3.6865220774533416       13.55733015907744
   189   3      4.5627307713989946       2.157555039422979      13.531344157082183
   190   3      7.7231789215481417      9.5711644026525242      6.2324345952012639
   191   3      7.7981750312916516      2.1143809818883703      6.1433780200021575
   192   3      4.6572865010722753      9.4877596076837207      13.451231736392138
   193   3     -3.1590285922865862      4.2834472103174974      15.691978500922378
   194   3      15.688729904162603      7.4491278745792497        4.09472305724411
   195   3      15.504441283475145      4.1659101664611411      4.1474694248757507
   196   3     -3.3158158857236955      7.4848656432647127      15.542889072845602
   197   3      6.6256065991451392      9.9167950740126614      15.600117077357016
   198   3      5.5157860808081596      1.6453272700907713      4.1466980293643578
   199   3       5.622125623358067      9.9512309022157091      4.1599773142131102
   200   3      6.8504049695007883      1.5032384208475522      15.700885522810227
   201   3     -2.0223282351767535      9.6728651399867758      19.064966401194638
   202   3      14.443608103360239      9.7218640642483862     0.64292024308885687
   203   3      -2.109260209497716      2.3395979561251661      19.330829363237847
   204   3      7.9033861266359375      3.4192824326185014      19.367192081077167
   205   3      4.3626511372599719      7.7317050673618768     0.63275765868689138
   206   3      7.9357110561496311      7.6784577928588797      19.053200853872802
   207   3     0.92321694820291089       2.596480588439134      16.103357157565966
   208   3      11.308340590389877      9.1062515386926588      3.5705716344768486
   209   3      11.456576308874901      2.4349195674663835      3.5668629331688591
   210   3      1.0039695918651352      9.1437079305738944      16.012039696695457
   211   3      11.019869229792786      8.1717317725478562      16.058073873325057
   212   3      1.4654924026834208      3.3349883268037703      3.6218447666249864
   213   3       1.298686771432227      8.3819625630709655       3.622338425516483
   214   3       10.93972556057305      3.2294929178514939      16.159424399399946
   215   3     -1.5214588503826931      2.7789768616535557      16.901327635471706
   216   3      13.771000390186376      8.9284787336473634      2.8956480989387932
   217   3      13.854100604928318      2.9035550794121319      2.3658037568417916
   218   3     -1.3869378516941326      8.8300115235318763      16.814468879401502
   219   3      8.6464903483411852      8.6041270071806846      16.849423993270324
   220   3      3.8325537902941482      2.8892560985418934      2.3889251514694085
   221   3      3.7689807885922395      8.4558139673739294      2.9296003092734981
   222   3      8.4779352496625631      3.0263604654979943      16.928958093286315
   223   3     -1.1513345974383329      5.7355334731309844      17.508534729210801
   224   3       13.43567087868141      5.8996338611951087      2.2846232568262663
   225   3      8.8351472100045676    0.081713693046229913      17.545759507073022
   226   3      3.4050797995774817      11.486918058284136      2.3018376194345067
   227   3     0.39235433329798752      7.2807097941786472      19.322115129843805
   228   3       11.89088339827545       4.418092748342521     0.38775600751332112
   229   3      11.914124501876882      7.3136076006019213     0.37578250716168771
   230   3      0.6440286511408182      4.4019805889413997      19.243840561722688
   231   3      10.670993901054301      1.3950142241391033      19.253912433824972
   232   3      1.8749781143223649        10.0791278424001     0.39504800707843662
   233   3      1.8887244643796453      1.3755494529875898     0.38396031436556505
   234   3      10.393345209047135      10.114220507685873      19.333274867576375
   235   3      1.6275798688332053       6.003800084753018       17.13041025837385
   236   3      10.631894567206334      5.8810032843913511      2.4461413998631998
   237   3      11.606823037252244      11.378348668586462      17.124035973765391
   238   3      0.5987002949699024   -0.050106401258365171      2.4446421276940566
   239   3     -2.4647734972969113      7.1972339569260182      11.048762201665156
   240   3     -2.4052337492507361      4.3523589952906532      10.989236984475726
   241   3      4.7762064959278359      10.192661441372147      8.5723926727859237
   242   3       4.758040115567721      1.4396879144117658      8.6629660115676153
   243   3   -0.012565097608806752      5.8220105452774904       11.42711037745336
   244   3      2.3263880799417804   0.0051811137143848466      8.3135805443760091
   245   3     -2.0088418924265183      5.7263166988305638      13.420012367057035
   246   3      4.2369896943667298    0.087227545037442969      6.2368168476717303
   247   3      11.921929980888248      5.7037947136412095      17.933167192339393
   248   3      0.4448607115512393       5.758759741207701       2.037148903351448
   249   3      1.9113186931337358    0.086686036113688358      17.815418615563349
   250   3      10.462959429870619    0.037828314605577375       1.919187500031347
   251   3     -6.0562366058958554      5.7019506972181588        15.9803130980413
   252   3      18.288072710495921      5.6831333965980519      3.8281009236514216
   253   3      3.9945994751480605     0.10767703334245356      15.900564607690669
   254   3      8.3055882977847482     0.10451191626292175      3.7567414349730504
   255   3     -5.7692290537382718      7.2214881958826034      18.399201682120633
   256   3      18.140248108815616      4.4394925739606546      1.2650355039163086
   257   3      18.139700149557747       7.265408459402904      1.4320588234480465
   258   3       -5.69557845285944      4.3835921556489854      18.507042034771256
   259   3      4.3024528024237672      1.4033909763822545      18.454327475791885
   260   3       8.113799120991267      10.144298633627907      1.3545246738271444
   261   3      8.1201412607093584      1.3822200706358507      1.2214664368235659
   262   3      4.2524488997527596      10.172504008102655      18.325209914841395
   263   3      2.4071737704610143      1.4954521901392603      11.453285307725613
   264   3      9.8251108927519049      10.147266592951508      8.0692485507271385
   265   3      9.7581624242733902      1.4163462433785428      7.9947324675171405
   266   3      2.4721661598781273      10.191538619803007      11.471284241401204
   267   3       12.58367912019148      7.2058709554624558      11.598072549879802
   268   3    -0.15706326854433206      4.3436719439767222      8.1959144932078658
   269   3    -0.09060833515624056      7.2417717415305205      8.2040980405322053
   270   3      12.550977562276962      4.3366874256684511      11.684955395830245
   271   3     0.88387839358196718      11.616819568546189      13.222221787029513
   272   3      11.761885930201409      11.624585742594556      6.7233776145264477
   273   3      10.601656098984581      5.8206448649514746      12.950880097028504
   274   3      1.4604189240008929       5.747116797225476      6.4601126215389835
   275   3     0.21292705927943167   0.0039019377578641242      10.452577635763335
   276   3      11.704261029809491    0.071529103879047665      9.5609690621358396
   277   3      10.655008534708012      5.7396877589517592      10.113430293073511
   278   3      2.0930516482128207      5.7307713204146697      9.2316663976294535
   279   3       13.21204163976841      4.3991083954665884      8.3501395090467962
   280   3      13.251498827105225       7.272189562982283      8.2888267229573014
   281   3      9.1440157205619563      1.4170980531729125      11.356766302690119
   282   3       9.129434807785092      10.136334927334765      11.378673007345697
   283   3      14.049590332334372      5.7800463108184381      6.0136103843939841
   284   3      8.1933076637613507  -0.0036005248360592764      13.621277293409021
   285   3      15.686442485812499      5.8057301734127043      8.2179567357964842
   286   3      6.6914330968834452 -0.00045417365188217448      11.293993446396676
