     135
 i =        2, time =        0.600, E =     -3708.7511931507
  O        -0.0052142885        0.0026569075       -0.0011193873
  O        -0.0000871600       -0.0005307032        0.0019687946
  O         0.0063369753        0.0005124232        0.0022146092
 Ti        -0.0005079240       -0.0007015052        0.0008716052
 Sr        -0.0037077082        0.0020357457        0.0011325473
  O         0.0039699901        0.0022158564        0.0012567284
  O         0.0024883206       -0.0020672931        0.0018509031
  O        -0.0009609521       -0.0012761283        0.0038593910
 Ti        -0.0001529632        0.0003740411        0.0004050698
 Sr        -0.0022150783       -0.0001870346       -0.0007108931
  O        -0.0023871662       -0.0027463826        0.0047313930
  O         0.0007980064       -0.0016839442        0.0024951394
  O        -0.0005907895       -0.0016106775        0.0005382109
 Ti        -0.0013024000       -0.0013983528        0.0013189047
 Sr         0.0005752389       -0.0002090855       -0.0016285759
  O         0.0051856104        0.0007163526       -0.0028174040
  O         0.0009763627        0.0026381466        0.0034503191
  O        -0.0008980265       -0.0009526845        0.0013652461
 Ti         0.0016525705       -0.0007458756        0.0011589604
 Sr        -0.0019375897        0.0012945076       -0.0009664094
  O         0.0025311661       -0.0031079211        0.0008228205
  O         0.0049565722       -0.0008667883        0.0027753181
  O         0.0009147604       -0.0012149244        0.0002442472
 Ti         0.0042943822       -0.0014995581        0.0005577476
 Sr        -0.0014459852       -0.0003583150        0.0000466885
  O         0.0002474008       -0.0013270682        0.0015287049
  O        -0.0011930217       -0.0016983480       -0.0009563048
  O         0.0024582963       -0.0022024961        0.0015870725
 Ti        -0.0001074217        0.0010257550        0.0013103815
 Sr        -0.0006859366       -0.0002794192       -0.0007247414
  O         0.0017177759        0.0001565973        0.0012400320
  O         0.0027950143        0.0011356674        0.0009808976
  O         0.0020613951       -0.0033158777        0.0022306799
 Ti         0.0011811118       -0.0010804454       -0.0019355495
 Sr        -0.0002636228        0.0017197428        0.0010153392
  O         0.0034806297       -0.0011419206       -0.0025787505
  O         0.0020796374       -0.0003327272        0.0012211260
  O        -0.0024482224        0.0005823721       -0.0004536206
 Ti         0.0018446008       -0.0005870396        0.0013861268
 Sr         0.0001935148       -0.0005555435       -0.0012607048
  O         0.0000332370       -0.0014639778        0.0011679782
  O        -0.0037307685        0.0010523822       -0.0063725991
  O         0.0002483802       -0.0003846339        0.0026761882
 Ti        -0.0023872922       -0.0025255244        0.0010443042
 Sr        -0.0001825186        0.0002006447       -0.0025635344
  O         0.0000047639        0.0000786565       -0.0026965905
  O         0.0016008947       -0.0040416690       -0.0003399248
  O        -0.0012856215        0.0030045946       -0.0013709445
 Ti         0.0020830525       -0.0013228051       -0.0001977389
 Sr         0.0004272587        0.0008025749        0.0002202273
  O         0.0006810762        0.0007407343       -0.0006220705
  O        -0.0009918859        0.0014976126       -0.0004249048
  O         0.0021593017        0.0016500305       -0.0008495528
 Ti         0.0001219321       -0.0025673254        0.0027944996
 Sr        -0.0026714488       -0.0020843344        0.0018451542
  O        -0.0018184247       -0.0032373405        0.0003195241
  O        -0.0015329583        0.0003997708       -0.0012482660
  O        -0.0028391300       -0.0038408744       -0.0001517102
 Ti         0.0025136420       -0.0000389071       -0.0012166795
 Sr        -0.0003746289        0.0006857526       -0.0011127937
  O         0.0023611573       -0.0023874290        0.0021811952
  O         0.0018127915       -0.0056794698        0.0025898749
  O         0.0037637063       -0.0010718877       -0.0014660287
 Ti        -0.0005971669       -0.0009377533        0.0004493113
 Sr        -0.0014803069        0.0003099375       -0.0002980415
  O         0.0012758509       -0.0015358741        0.0051198700
  O        -0.0007164228        0.0025818323        0.0025158151
  O         0.0040190671       -0.0000483868        0.0004162685
 Ti        -0.0004410065        0.0001078436        0.0019070781
 Sr        -0.0000434387       -0.0000155556       -0.0015945602
  O        -0.0024045024       -0.0028382126       -0.0014038243
  O        -0.0045392048       -0.0009268681        0.0020366574
  O         0.0005836535        0.0014256918       -0.0045098036
 Ti        -0.0022588927       -0.0015404955       -0.0004846783
 Sr        -0.0001535184        0.0001532497       -0.0007952849
  O         0.0012370570        0.0004930407        0.0045523273
  O        -0.0000845713        0.0001352690       -0.0025104489
  O        -0.0020766627        0.0021065581        0.0019433134
 Ti         0.0027226113       -0.0001748733       -0.0022481734
 Sr         0.0005541755        0.0001781499        0.0001760331
  O        -0.0004421782        0.0005035003        0.0016140254
  O         0.0031941395        0.0025978263       -0.0002131917
  O         0.0046785551       -0.0014443161        0.0038146095
 Ti        -0.0000505921       -0.0024449679       -0.0008046544
 Sr        -0.0017701030        0.0005613693        0.0000050832
  O        -0.0060788608       -0.0039866485       -0.0018143977
  O        -0.0033794419       -0.0016790044        0.0042084733
  O        -0.0014528040        0.0024384398        0.0007236705
 Ti        -0.0016075383       -0.0011689290        0.0023099995
 Sr        -0.0004360954       -0.0001841528       -0.0000311246
  O        -0.0060714253       -0.0017727116       -0.0004168636
  O        -0.0041460883       -0.0047305959        0.0026440386
  O        -0.0014922392       -0.0024411460       -0.0005575549
 Ti         0.0008632056       -0.0017211197        0.0003514143
 Sr         0.0012527543        0.0003025067       -0.0011298713
  O        -0.0026768185       -0.0023651340       -0.0042336656
  O         0.0005186997        0.0011282736       -0.0028386858
  O         0.0019684482        0.0011111959        0.0035905589
 Ti        -0.0011516683       -0.0005479670        0.0008378984
 Sr        -0.0010881566        0.0005934703       -0.0008006641
  O         0.0003220150       -0.0015714927        0.0007389656
  O         0.0032550553        0.0017452913        0.0031510336
  O         0.0006419429        0.0018812865        0.0048837275
 Ti         0.0018740599        0.0010495441        0.0007695146
 Sr        -0.0008325846       -0.0004313320        0.0000917898
  O        -0.0003902975       -0.0005197748       -0.0030469454
  O        -0.0020255357        0.0016546722       -0.0020607071
  O        -0.0010982302       -0.0019100571       -0.0019788885
 Ti         0.0008548314        0.0026098837        0.0000448366
 Sr        -0.0002236300       -0.0004711231       -0.0019708585
  O         0.0024780905        0.0020626623       -0.0004177683
  O        -0.0009525406       -0.0027854481        0.0034754552
  O        -0.0038624204        0.0020252461        0.0000400181
 Ti         0.0021705850        0.0010407855        0.0008579711
 Sr        -0.0008422381       -0.0000107342       -0.0009154811
  O         0.0006252732        0.0010667532        0.0039218376
  O        -0.0014209697       -0.0034238236       -0.0000495789
  O        -0.0011483487       -0.0064741610        0.0001979079
 Ti         0.0004831425        0.0000400676       -0.0008645010
 Sr        -0.0016274684       -0.0017091171       -0.0006068071
  O         0.0024194963        0.0013021146        0.0005845157
  O        -0.0002022252        0.0015625823       -0.0029909246
  O         0.0042033093       -0.0045864483        0.0014213779
 Ti        -0.0001500874        0.0009775581        0.0017314489
 Sr         0.0001051018        0.0011152245       -0.0000611358
  O         0.0038957247       -0.0041787906       -0.0012400996
  O         0.0039133771        0.0004707520       -0.0013102616
  O         0.0013834174       -0.0033927656        0.0031260566
 Ti         0.0004466074        0.0006838001        0.0017095811
 Sr        -0.0006575374       -0.0001682409        0.0009734702
  O        -0.0012359990       -0.0034010559       -0.0010883328
  O         0.0016528636       -0.0017333918       -0.0005272114
  O        -0.0011291867        0.0022889075       -0.0005951684
 Ti        -0.0011218222        0.0012034339        0.0006658458
 Sr        -0.0021381523       -0.0002245221        0.0010136453
     135
 i =        3, time =        1.200, E =     -3708.7529596024
  O        -0.0048228339        0.0027500628       -0.0009928348
  O         0.0000446489       -0.0004046160        0.0018608706
  O         0.0063608000        0.0006073786        0.0022506332
 Ti        -0.0005944453       -0.0006976433        0.0008785725
 Sr        -0.0037022937        0.0020261974        0.0011151195
  O         0.0038399945        0.0021490468        0.0011922276
  O         0.0024148951       -0.0018247061        0.0019122703
  O        -0.0009866445       -0.0012219143        0.0037060268
 Ti        -0.0001435596        0.0004192509        0.0005607955
 Sr        -0.0021958112       -0.0001965714       -0.0007273383
  O        -0.0026293378       -0.0026700537        0.0049773209
  O         0.0008431162       -0.0017102742        0.0023410638
  O        -0.0005945441       -0.0017548638        0.0001452976
 Ti        -0.0012551766       -0.0015041343        0.0014298657
 Sr         0.0005746310       -0.0002055119       -0.0016440184
  O         0.0051192437        0.0007041296       -0.0028464797
  O         0.0009242147        0.0025672241        0.0033845617
  O        -0.0008445856       -0.0010216220        0.0015419538
 Ti         0.0016772226       -0.0008635368        0.0012030438
 Sr        -0.0019239600        0.0012872474       -0.0009902027
  O         0.0022994472       -0.0031699155        0.0008505399
  O         0.0051314276       -0.0010277934        0.0027781826
  O         0.0009694247       -0.0012772672        0.0000509050
 Ti         0.0042859283       -0.0014153792        0.0005978011
 Sr        -0.0014771963       -0.0003511632        0.0000491597
  O         0.0003232258       -0.0013884206        0.0015603638
  O        -0.0013372678       -0.0014682588       -0.0010089414
  O         0.0024712451       -0.0020755550        0.0015495010
 Ti        -0.0001333663        0.0009653577        0.0013205098
 Sr        -0.0006846448       -0.0002813470       -0.0007365917
  O         0.0017051801        0.0002543550        0.0010768297
  O         0.0027840274        0.0016761701        0.0009854800
  O         0.0020052399       -0.0033657899        0.0022393887
 Ti         0.0010385548       -0.0011352997       -0.0019000784
 Sr        -0.0002473601        0.0017157239        0.0010477848
  O         0.0034926699       -0.0010011771       -0.0026324050
  O         0.0021414146       -0.0005314185        0.0012446296
  O        -0.0023727373        0.0005515216       -0.0005867637
 Ti         0.0018556057       -0.0006956253        0.0014039505
 Sr         0.0001956805       -0.0005572457       -0.0012467806
  O         0.0001700579       -0.0014090134        0.0011586091
  O        -0.0037579733        0.0008958841       -0.0064229402
  O         0.0002228861       -0.0004386763        0.0022675970
 Ti        -0.0023591776       -0.0024926272        0.0011853607
 Sr        -0.0001930892        0.0002067403       -0.0025555566
  O         0.0000345435        0.0000729156       -0.0027451392
  O         0.0016857061       -0.0040085373       -0.0003745368
  O        -0.0012777880        0.0031411383       -0.0013273423
 Ti         0.0021281127       -0.0013138779       -0.0002359214
 Sr         0.0004225409        0.0008075958        0.0001919273
  O         0.0005704840        0.0005579751       -0.0005568375
  O        -0.0011191833        0.0015429031       -0.0003850393
  O         0.0022103012        0.0016039901       -0.0007168411
 Ti         0.0001989344       -0.0025831107        0.0027190961
 Sr        -0.0026693457       -0.0020783132        0.0018508373
  O        -0.0017310750       -0.0032020968        0.0001796311
  O        -0.0014695141        0.0006993192       -0.0013926884
  O        -0.0029913501       -0.0039583374        0.0000034110
 Ti         0.0024754594       -0.0000309843       -0.0011668905
 Sr        -0.0003627349        0.0006878899       -0.0011146138
  O         0.0024112886       -0.0024771164        0.0022399633
  O         0.0017197640       -0.0057085184        0.0025679702
  O         0.0037799879       -0.0011868798       -0.0014147992
 Ti        -0.0006659703       -0.0008720897        0.0003762180
 Sr        -0.0015097163        0.0003297458       -0.0003090311
  O         0.0013734718       -0.0015081181        0.0050749386
  O        -0.0005638820        0.0027784513        0.0026364865
  O         0.0040077828       -0.0000646645        0.0003485086
 Ti        -0.0004111535        0.0001431638        0.0019352388
 Sr        -0.0000429467       -0.0000349524       -0.0016028699
  O        -0.0025926798       -0.0028012195       -0.0014542486
  O        -0.0044598109       -0.0010894152        0.0021126783
  O         0.0005437749        0.0014335493       -0.0048195066
 Ti        -0.0022360645       -0.0015217749       -0.0004050119
 Sr        -0.0001485020        0.0001640785       -0.0008137343
  O         0.0010199734        0.0004750791        0.0047161544
  O        -0.0000962730       -0.0000159825       -0.0024608512
  O        -0.0019067062        0.0020819908        0.0022030721
 Ti         0.0027538573       -0.0002103121       -0.0022959745
 Sr         0.0005668517        0.0001854501        0.0001767880
  O        -0.0004612192        0.0004871342        0.0015454074
  O         0.0032261007        0.0024822972       -0.0003785052
  O         0.0046890792       -0.0015654939        0.0035881975
 Ti        -0.0000091870       -0.0024531245       -0.0006375300
 Sr        -0.0017672603        0.0005589043        0.0000044610
  O        -0.0063060146       -0.0040611533       -0.0017444432
  O        -0.0034450239       -0.0017419014        0.0042638484
  O        -0.0014365799        0.0023379897        0.0005206910
 Ti        -0.0015829245       -0.0011582765        0.0022855791
 Sr        -0.0004318917       -0.0001856907       -0.0000199491
  O        -0.0058412852       -0.0017464528       -0.0004958981
  O        -0.0041969578       -0.0043473282        0.0027158986
  O        -0.0016081710       -0.0024773792       -0.0005380918
 Ti         0.0008993513       -0.0016880659        0.0003139961
 Sr         0.0012223781        0.0003164359       -0.0011379121
  O        -0.0024968103       -0.0023254226       -0.0040769497
  O         0.0005135506        0.0014405423       -0.0027878111
  O         0.0019348756        0.0010794697        0.0033500733
 Ti        -0.0011900976       -0.0006468663        0.0008792025
 Sr        -0.0011039964        0.0006032295       -0.0008188278
  O         0.0001402874       -0.0015492828        0.0007856063
  O         0.0033092031        0.0015828139        0.0030686456
  O         0.0007152661        0.0019590168        0.0049308968
 Ti         0.0017904512        0.0011358836        0.0007915267
 Sr        -0.0007882090       -0.0004261056        0.0000879065
  O        -0.0005371791       -0.0004357668       -0.0031377651
  O        -0.0021127439        0.0015150492       -0.0021249530
  O        -0.0010314997       -0.0019494346       -0.0016135274
 Ti         0.0008565912        0.0024441329        0.0000662638
 Sr        -0.0002333118       -0.0004827655       -0.0019685169
  O         0.0025947088        0.0021587295       -0.0005096643
  O        -0.0009584450       -0.0027468837        0.0035802387
  O        -0.0038569415        0.0019597143        0.0001523654
 Ti         0.0022356236        0.0011073875        0.0008414207
 Sr        -0.0008629675       -0.0000261621       -0.0009190676
  O         0.0006733885        0.0011989972        0.0038970033
  O        -0.0014908988       -0.0033753537       -0.0001909433
  O        -0.0009730359       -0.0064393935        0.0003798944
 Ti         0.0004121904       -0.0000243955       -0.0009608408
 Sr        -0.0016229601       -0.0016799389       -0.0005992519
  O         0.0024349196        0.0012259340        0.0004837319
  O        -0.0002295917        0.0019208430       -0.0031056458
  O         0.0041756153       -0.0046424583        0.0015967516
 Ti        -0.0000803312        0.0009322491        0.0017379980
 Sr         0.0001049060        0.0011154404       -0.0000914502
  O         0.0039622402       -0.0042886129       -0.0012847257
  O         0.0037988168        0.0002959993       -0.0012631974
  O         0.0014169999       -0.0032680613        0.0031470678
 Ti         0.0003865562        0.0005830270        0.0016412557
 Sr        -0.0006514907       -0.0001383659        0.0009578616
  O        -0.0010042779       -0.0034574782       -0.0009928632
  O         0.0017137703       -0.0016608903       -0.0002989764
  O        -0.0011177860        0.0022661848       -0.0003011625
 Ti        -0.0011739757        0.0012577245        0.0007107912
 Sr        -0.0021380689       -0.0002359014        0.0009936739
     135
 i =        4, time =        1.800, E =     -3708.7531780708
  O        -0.0044078693        0.0028433402       -0.0008645809
  O         0.0001764523       -0.0002715461        0.0017512145
  O         0.0063810418        0.0007016711        0.0022756007
 Ti        -0.0006802690       -0.0006897708        0.0008871401
 Sr        -0.0036972481        0.0020162200        0.0010977930
  O         0.0036874306        0.0020799101        0.0011303749
  O         0.0023359392       -0.0015798972        0.0019714377
  O        -0.0010119672       -0.0011696703        0.0035357598
 Ti        -0.0001312218        0.0004636836        0.0007206193
 Sr        -0.0021749730       -0.0002065280       -0.0007429750
  O        -0.0028567682       -0.0025899163        0.0052140059
  O         0.0008877342       -0.0017354335        0.0021869513
  O        -0.0006034088       -0.0018979925       -0.0002352045
 Ti        -0.0012109666       -0.0016094685        0.0015363578
 Sr         0.0005736451       -0.0002011495       -0.0016589818
  O         0.0050359301        0.0006929291       -0.0028696337
  O         0.0008678708        0.0024756156        0.0033132755
  O        -0.0007884389       -0.0010886788        0.0017059196
 Ti         0.0017047197       -0.0009785223        0.0012465076
 Sr        -0.0019104069        0.0012801101       -0.0010137448
  O         0.0020729175       -0.0032311285        0.0008761911
  O         0.0053028044       -0.0011804277        0.0027793674
  O         0.0010248577       -0.0013384500       -0.0001418591
 Ti         0.0042734717       -0.0013308867        0.0006385418
 Sr        -0.0015079161       -0.0003434420        0.0000520740
  O         0.0004030649       -0.0014477683        0.0015904800
  O        -0.0014791757       -0.0012349750       -0.0010563527
  O         0.0024847926       -0.0019483027        0.0015070545
 Ti        -0.0001601481        0.0009023105        0.0013275435
 Sr        -0.0006830254       -0.0002838898       -0.0007481709
  O         0.0016910734        0.0003485499        0.0009126313
  O         0.0027714061        0.0022092564        0.0009927894
  O         0.0019488064       -0.0034143283        0.0022370487
 Ti         0.0008955925       -0.0011914308       -0.0018618016
 Sr        -0.0002311441        0.0017111086        0.0010802624
  O         0.0034876860       -0.0008568379       -0.0026787360
  O         0.0022036025       -0.0007318328        0.0012676392
  O        -0.0022884877        0.0005196069       -0.0007120451
 Ti         0.0018649211       -0.0008035106        0.0014185037
 Sr         0.0001985137       -0.0005590152       -0.0012321416
  O         0.0003098290       -0.0013533290        0.0011475478
  O        -0.0037753565        0.0007360785       -0.0064657743
  O         0.0001978364       -0.0004916690        0.0018466905
 Ti        -0.0023305006       -0.0024554344        0.0013269196
 Sr        -0.0002036023        0.0002125138       -0.0025470318
  O         0.0000620499        0.0000651955       -0.0027860010
  O         0.0017718554       -0.0039584077       -0.0004078737
  O        -0.0012694919        0.0032674022       -0.0012814201
 Ti         0.0021721074       -0.0013046104       -0.0002744447
 Sr         0.0004173123        0.0008116136        0.0001635277
  O         0.0004511581        0.0003706152       -0.0004886912
  O        -0.0012490461        0.0015850053       -0.0003404543
  O         0.0022556339        0.0015564653       -0.0005670284
 Ti         0.0002799787       -0.0025942839        0.0026372620
 Sr        -0.0026661976       -0.0020716438        0.0018559450
  O        -0.0016321603       -0.0031626138        0.0000422268
  O        -0.0014059815        0.0009900530       -0.0015341022
  O        -0.0031408842       -0.0040661779        0.0001623718
 Ti         0.0024312202       -0.0000257391       -0.0011146945
 Sr        -0.0003508895        0.0006904921       -0.0011158742
  O         0.0024500743       -0.0025645304        0.0022890844
  O         0.0016260653       -0.0057238054        0.0025421192
  O         0.0037840360       -0.0013001058       -0.0013493977
 Ti        -0.0007299288       -0.0008044386        0.0003032373
 Sr        -0.0015384074        0.0003492980       -0.0003206202
  O         0.0014590222       -0.0014749530        0.0050187612
  O        -0.0004111200        0.0029574654        0.0027591382
  O         0.0039857616       -0.0000792736        0.0002859724
 Ti        -0.0003814320        0.0001769513        0.0019599397
 Sr        -0.0000412969       -0.0000545456       -0.0016109614
  O        -0.0027604760       -0.0027573479       -0.0015018083
  O        -0.0043717466       -0.0012449088        0.0021800167
  O         0.0005072037        0.0014434843       -0.0051062634
 Ti        -0.0022160926       -0.0015035566       -0.0003267070
 Sr        -0.0001447103        0.0001740919       -0.0008320311
  O         0.0007978480        0.0004531095        0.0048790067
  O        -0.0001091887       -0.0001781039       -0.0024134307
  O        -0.0017304052        0.0020573775        0.0024543179
 Ti         0.0027824879       -0.0002487150       -0.0023400655
 Sr         0.0005796152        0.0001933488        0.0001772919
  O        -0.0004802010        0.0004690883        0.0014754653
  O         0.0032543533        0.0023582105       -0.0005429130
  O         0.0046892085       -0.0016864661        0.0033387915
 Ti         0.0000342751       -0.0024601534       -0.0004656063
 Sr        -0.0017636629        0.0005557557        0.0000034015
  O        -0.0064996352       -0.0041317706       -0.0016705468
  O        -0.0035077258       -0.0018087223        0.0043180435
  O        -0.0014157089        0.0022281223        0.0003286356
 Ti        -0.0015624030       -0.0011445302        0.0022578773
 Sr        -0.0004283497       -0.0001873553       -0.0000083039
  O        -0.0055681136       -0.0017189777       -0.0005704160
  O        -0.0042410312       -0.0039326130        0.0027871242
  O        -0.0017276392       -0.0025159935       -0.0005112588
 Ti         0.0009330355       -0.0016496418        0.0002756788
 Sr         0.0011914363        0.0003298125       -0.0011458212
  O        -0.0023214141       -0.0022824823       -0.0039148188
  O         0.0005076401        0.0017485087       -0.0027338101
  O         0.0018993211        0.0010482452        0.0030950631
 Ti        -0.0012236575       -0.0007478064        0.0009228605
 Sr        -0.0011193043        0.0006119659       -0.0008368377
  O        -0.0000516997       -0.0015280078        0.0008337131
  O         0.0033553500        0.0013976116        0.0029847996
  O         0.0007874013        0.0020325612        0.0049450697
 Ti         0.0017032233        0.0012217298        0.0008162240
 Sr        -0.0007439690       -0.0004205735        0.0000838514
  O        -0.0006798365       -0.0003513266       -0.0032257246
  O        -0.0021960784        0.0013568705       -0.0021865433
  O        -0.0009624190       -0.0019857871       -0.0012451178
 Ti         0.0008567920        0.0022763563        0.0000876371
 Sr        -0.0002427394       -0.0004945583       -0.0019650318
  O         0.0026982050        0.0022523670       -0.0005993410
  O        -0.0009640808       -0.0026979195        0.0036832323
  O        -0.0038401731        0.0018944628        0.0002688416
 Ti         0.0022999025        0.0011735242        0.0008251145
 Sr        -0.0008832098       -0.0000413173       -0.0009222869
  O         0.0007190483        0.0013298198        0.0038687851
  O        -0.0015592197       -0.0033053844       -0.0003273259
  O        -0.0008021949       -0.0063930244        0.0005553593
 Ti         0.0003424792       -0.0000909441       -0.0010556937
 Sr        -0.0016182420       -0.0016514270       -0.0005916084
  O         0.0024362691        0.0011449713        0.0003826515
  O        -0.0002582809        0.0022672772       -0.0032159546
  O         0.0041448540       -0.0046945104        0.0017719178
 Ti        -0.0000108378        0.0008773319        0.0017399348
 Sr         0.0001052798        0.0011159863       -0.0001213922
  O         0.0040135943       -0.0043957887       -0.0013243368
  O         0.0036771602        0.0001157673       -0.0012097855
  O         0.0014482145       -0.0031389894        0.0031592810
 Ti         0.0003254083        0.0004823165        0.0015722498
 Sr        -0.0006451517       -0.0001080722        0.0009424065
  O        -0.0007579222       -0.0035084494       -0.0008943930
  O         0.0017741010       -0.0015798853       -0.0000723269
  O        -0.0011069542        0.0022451364       -0.0000020516
 Ti        -0.0012244299        0.0013139348        0.0007560622
 Sr        -0.0021382679       -0.0002468176        0.0009734357
     135
 i =        5, time =        2.400, E =     -3708.7540357422
  O        -0.0039733837        0.0029366763       -0.0007344191
  O         0.0003087394       -0.0001328325        0.0016401912
  O         0.0063997512        0.0007967136        0.0022907106
 Ti        -0.0007650292       -0.0006780000        0.0008966824
 Sr        -0.0036925668        0.0020057811        0.0010804489
  O         0.0035138000        0.0020098086        0.0010709439
  O         0.0022518923       -0.0013369942        0.0020286640
  O        -0.0010366606       -0.0011185213        0.0033495392
 Ti        -0.0001160126        0.0005071489        0.0008844227
 Sr        -0.0021525912       -0.0002168048       -0.0007577488
  O        -0.0030658461       -0.0025063180        0.0054401968
  O         0.0009319372       -0.0017586554        0.0020327126
  O        -0.0006173457       -0.0020401694       -0.0006004064
 Ti        -0.0011698273       -0.0017134588        0.0016383603
 Sr         0.0005723656       -0.0001959681       -0.0016734948
  O         0.0049374389        0.0006831227       -0.0028869840
  O         0.0008071588        0.0023649198        0.0032379971
  O        -0.0007293457       -0.0011531782        0.0018562194
 Ti         0.0017345586       -0.0010902801        0.0012896495
 Sr        -0.0018969258        0.0012729836       -0.0010370065
  O         0.0018529914       -0.0032910983        0.0009000883
  O         0.0054690132       -0.0013250028        0.0027786502
  O         0.0010807760       -0.0013980483       -0.0003317210
 Ti         0.0042568663       -0.0012464398        0.0006793711
 Sr        -0.0015382234       -0.0003352939        0.0000554106
  O         0.0004866409       -0.0015050406        0.0016188674
  O        -0.0016192372       -0.0010015743       -0.0010996650
  O         0.0024988396       -0.0018221262        0.0014613207
 Ti        -0.0001877300        0.0008368296        0.0013313408
 Sr        -0.0006811610       -0.0002871070       -0.0007594982
  O         0.0016759737        0.0004392015        0.0007478239
  O         0.0027567551        0.0027316199        0.0010031055
  O         0.0018924684       -0.0034607194        0.0022257442
 Ti         0.0007520107       -0.0012488256       -0.0018220187
 Sr        -0.0002149948        0.0017059715        0.0011128087
  O         0.0034667206       -0.0007094172       -0.0027162589
  O         0.0022662602       -0.0009331157        0.0012897731
  O        -0.0021955453        0.0004866011       -0.0008283104
 Ti         0.0018725492       -0.0009096957        0.0014294175
 Sr         0.0002018031       -0.0005609096       -0.0012168659
  O         0.0004514225       -0.0012968275        0.0011334458
  O        -0.0037834973        0.0005741336       -0.0065041749
  O         0.0001730164       -0.0005436073        0.0014176787
 Ti        -0.0023011600       -0.0024143806        0.0014685085
 Sr        -0.0002138911        0.0002180540       -0.0025379382
  O         0.0000875118        0.0000550520       -0.0028198553
  O         0.0018589948       -0.0038934883       -0.0004409270
  O        -0.0012599099        0.0033835530       -0.0012325173
 Ti         0.0022152753       -0.0012948497       -0.0003135071
 Sr         0.0004115485        0.0008148724        0.0001351128
  O         0.0003255823        0.0001788761       -0.0004171944
  O        -0.0013811343        0.0016250256       -0.0002916860