     135
 i =        2, time =        0.600, E =     -3708.7511931507
  O        -0.1073720917        1.7051278458        2.0584707228
  O         1.8308115892       -0.1971063075        2.1663778998
  O         1.8888466148        1.6479913392        0.1850778679
 Ti         1.8172838928        1.8728757357        2.0715535812
 Sr        -0.1778917047       -0.0463786482        0.2465831684
  O         3.8298314972        1.6803266322        2.1451206929
  O         5.8603064084       -0.1864202167        2.0575884736
  O         5.7545968671        1.7574989361        0.1560074224
 Ti         5.6861718572        1.8796751819        1.9551462307
 Sr         3.7076987823       -0.0650026677        0.0998080987
  O         7.7305090276        1.8402329804        2.0338504737
  O         9.5666232721       -0.1891383533        2.1903014757
  O         9.6914171149        1.8663775995        0.2695741989
 Ti         9.5984271474        1.9766903169        2.0378031165
 Sr         7.7221349532       -0.0401427280        0.1405775426
  O        -0.0593098325        5.7096306340        2.1983210865
  O         1.9342719854        3.7055654219        2.1650178392
  O         1.8235883290        5.7209481967        0.1475441752
 Ti         1.7888525808        5.8538261603        1.9908881077
 Sr        -0.1733948241        3.8716661193        0.2395233409
  O         3.8575307835        5.6976914693        2.0791655249
  O         5.6494532565        3.7444665411        2.1131130909
  O         5.8104602698        5.7226801372        0.2035010069
 Ti         5.6911888823        5.7860834742        2.0153654441
 Sr         3.8302313446        3.8338272378        0.1169764161
  O         7.7323174299        5.6829553679        2.1958534961
  O         9.7863809963        3.7624132811        2.2543162215
  O         9.6997439697        5.7291354492        0.2593497995
 Ti         9.6181619116        5.8596472501        2.1169617723
 Sr         7.7348424107        3.8244441543        0.1367164611
  O        -0.1058416897        9.5448879069        2.2389342580
  O         1.9389123682        7.5955366597        2.1302196156
  O         1.8814031233        9.6002342449        0.1851322992
 Ti         1.8855962736        9.7256985503        2.0433513024
 Sr        -0.1884389228        7.7539765428        0.0441322038
  O         3.8053493743        9.5666209022        2.1775010348
  O         5.7190304579        7.6664848431        2.1882107701
  O         5.6761276637        9.5662612090        0.1846903609
 Ti         5.7277817807        9.7257360785        1.9931821926
 Sr         3.7770741287        7.7563283695        0.0753077404
  O         7.6507379375        9.4868193498        2.1362196787
  O         9.6652643238        7.6778481970        2.3167899285
  O         9.6539204830        9.5019579212        0.2595583100
 Ti         9.6072659912        9.6891973763        2.0322388162
 Sr         7.6723725780        7.7011305535        0.0724661018
  O        -0.0929317781        1.8541400145        6.1523977121
  O         1.8088687020       -0.1427864628        6.1465084566
  O         1.8322438892        1.6585748040        4.1043840005
 Ti         1.7420720808        1.8763350357        6.0132859617
 Sr        -0.1548099883       -0.1760582365        4.0810351905
  O         3.8153827074        1.8440205299        6.0495419239
  O         5.8582487153       -0.1397943597        6.0587795211
  O         5.7685614563        1.7665386892        4.0598639643
 Ti         5.6147889434        1.8604723081        5.9276790663
 Sr         3.7127199237       -0.0916374229        4.0087264234
  O         7.7462198700        1.7760388811        6.0845661581
  O         9.7334110558       -0.1984002542        6.1869007260
  O         9.7870595979        1.7660122613        4.0886165614
 Ti         9.6026090351        1.8454744584        5.9062946551
 Sr         7.6174112962       -0.0911694307        3.9986502456
  O        -0.0339041130        5.7597664433        6.0507711931
  O         1.9243305306        3.7464922590        5.9866003099
  O         1.9503785538        5.7592638997        4.0940760474
 Ti         1.8346868788        5.8109168282        5.9642056863
 Sr        -0.0412852854        3.7857290454        4.0818909594
  O         3.8246668283        5.6493643473        6.1369788522
  O         5.7444578964        3.7048283199        6.0184749383
  O         5.7548440570        5.6711547099        4.1196050798
 Ti         5.6612774375        5.7983332957        5.9433706046
 Sr         3.7608816597        3.8983230129        4.0336165778
  O         7.7238743115        5.6707637264        6.0584697982
  O         9.6605624671        3.7497565014        5.9689882857
  O         9.7464949452        5.6995448760        4.1536919167
 Ti         9.5606660739        5.7760346661        5.9366468960
 Sr         7.6097752261        3.7811123114        4.0980079283
  O        -0.0370109324        9.5643809081        5.9240766734
  O         2.0306767688        7.6987524372        6.0315393048
  O         1.8617670600        9.6274625534        4.0529379159
 Ti         1.7599823681        9.6960137484        5.9569159200
 Sr        -0.1725874931        7.7202673590        4.0546834105
  O         3.8165909941        9.7404053381        6.0962729115
  O         5.7073315972        7.6823324614        6.0713146577
  O         5.7545068927        9.7001317816        4.1038872198
 Ti         5.6271120424        9.7133673370        5.8862756015
 Sr         3.7181167801        7.7332359717        3.9783100828
  O         7.7264975864        9.6012231271        6.1205304447
  O         9.7287462866        7.6546271259        6.0814628117
  O         9.5760591164        9.6790163508        4.1641241391
 Ti         9.5355855143        9.6720778600        5.9670120194
 Sr         7.5997437185        7.7472120447        3.9657319495
  O        -0.0893031971        1.6404858785       10.0155167140
  O         1.9153285087       -0.2396292984        9.8456149844
  O         1.9155819438        1.8545899927        8.0167034971
 Ti         1.7932451347        1.9174401087        9.9090784377
 Sr        -0.0434887103       -0.1184659342        7.9398237477
  O         3.8108891517        1.7486925146        9.8801332185
  O         5.8059443236       -0.1915278870        9.9409388661
  O         5.8109391583        1.7937845081        8.0243408580
 Ti         5.7504257322        1.9501705456        9.8298108467
 Sr         3.7922831280       -0.1191227509        8.0153767009
  O         7.7685140990        1.8268485348        9.9684262673
  O         9.6400804011       -0.1667202055       10.0818873041
  O         9.6721477276        1.8259317116        8.0174127088
 Ti         9.7015641378        1.8358711196        9.8293591495
 Sr         7.5332797571       -0.1093501389        7.9074116300
  O        -0.0643569501        5.6899400876        9.9733540350
  O         1.8684896635        3.7295675999       10.0506820635
  O         1.8546780245        5.6885366388        7.9538516898
 Ti         1.7763919292        5.8490360369        9.8492969073
 Sr        -0.1260079905        3.8901897434        7.8960741010
  O         3.8079880983        5.6502893025       10.0228042576
  O         5.7473807685        3.7560335984        9.9333391478
  O         5.7726244696        5.7277330527        8.0011733124
 Ti         5.6713401180        5.7739263793        9.8516245053
 Sr         3.7951486566        3.8307875810        7.9286511808
  O         7.7483848101        5.5413868414       10.0192369472
  O         9.8413136213        3.7073123099       10.1163431776
  O         9.6392373881        5.5635524918        8.0053889153
 Ti         9.6118918830        5.7351753115        9.8788588353
 Sr         7.7028005915        3.7045620983        7.8608709088
  O        -0.1210851619        9.5877108225       10.0581459886
  O         1.8913281939        7.6124761023        9.9935350033
  O         1.7656666790        9.5412828296        7.9813783636
 Ti         1.7599363371        9.7086077141        9.8506576943
 Sr        -0.1784415142        7.6975919434        7.9448492596
  O         3.7938939476        9.5996022069        9.9584880328
  O         5.8616032382        7.6232326092        9.9601124704
  O         5.7314708508        9.5497444061        8.0217052042
 Ti         5.7150707756        9.7376802738        9.8735315243
 Sr         3.7638431264        7.7024408043        7.9431781418
  O         7.7104800963        9.5979682047        9.9152498765
  O         9.6405220339        7.6085376281        9.8338446886
  O         9.7745051789        9.6045487610        7.9915996234
 Ti         9.6219873034        9.6912682967        9.7958283059
 Sr         7.6041756744        7.7484054801        7.9777912477
     135
 i =        3, time =        1.200, E =     -3708.7529596024
  O        -0.1103872045        1.7067499636        2.0578367342
  O         1.8307988471       -0.1973881398        2.1675271520
  O         1.8926568572        1.6483275924        0.1864193044
 Ti         1.8169531795        1.8724553754        2.0720782560
 Sr        -0.1801146785       -0.0451600018        0.2472574454
  O         3.8321779548        1.6816367169        2.1458548467
  O         5.8617782662       -0.1875886552        2.0587177591
  O         5.7540125569        1.7567498766        0.1582797648
 Ti         5.6860824186        1.8799133006        1.9554353552
 Sr         3.7063752732       -0.0651176695        0.0993765065
  O         7.7290021461        1.8386075604        2.0367644050
  O         9.5671157379       -0.1901567256        2.1917524059
  O         9.6910622600        1.8653676698        0.2697775724
 Ti         9.5976603501        1.9758195728        2.0386284898
 Sr         7.7224799896       -0.0402672234        0.1395956804
  O        -0.0562155174        5.7100566356        2.1966210304
  O         1.9348427464        3.7071302714        2.1670694018
  O         1.8230651200        5.7203556532        0.1484182383
 Ti         1.7898510245        5.8533430110        1.9915967855
 Sr        -0.1745532928        3.8724406200        0.2389363165
  O         3.8589794978        5.6958079898        2.0796678589
  O         5.6524801376        3.7438966678        2.1147792836
  O         5.8110253684        5.7219324307        0.2035897868
 Ti         5.6937635382        5.7852088864        2.0157119394
 Sr         3.8293542923        3.8336142942        0.1170050971
  O         7.7324880160        5.6821404815        2.1967804541
  O         9.7856215144        3.7614625647        2.2537256947
  O         9.7012227664        5.7278518169        0.2602916727
 Ti         9.6180897857        5.8602450094        2.1177515134
 Sr         7.7344311915        3.8242760096        0.1362780145
  O        -0.1048145058        9.5450116589        2.2396294474
  O         1.9405862870        7.5963809271        2.1308091599
  O         1.8826231675        9.5982296279        0.1864753659
 Ti         1.8862622435        9.7250340678        2.0421999860
 Sr        -0.1885922216        7.7550072836        0.0447511366
  O         3.8074441298        9.5659773116        2.1759367793
  O         5.7202967517        7.6662261304        2.1889504181
  O         5.6746799449        9.5666015497        0.1843771095
 Ti         5.7288920644        9.7253512605        1.9940196298
 Sr         3.7771907619        7.7559945366        0.0745553793
  O         7.6507984266        9.4859573990        2.1369176734
  O         9.6630161327        7.6784332427        2.3129496268
  O         9.6540618190        9.5017107941        0.2610436737
 Ti         9.6058419487        9.6876912352        2.0329076622
 Sr         7.6722599086        7.7012528340        0.0709302855
  O        -0.0929197516        1.8541857241        6.1507639064
  O         1.8098543903       -0.1452043854        6.1462938914
  O         1.8314749342        1.6604202077        4.1035743072
 Ti         1.7433356862        1.8755440036        6.0131559035
 Sr        -0.1545549901       -0.1755750121        4.0811588624
  O         3.8157597952        1.8444108470        6.0491877976
  O         5.8576157951       -0.1388813900        6.0585357787
  O         5.7698732863        1.7675152571        4.0593914802
 Ti         5.6148845160        1.8589263989        5.9293341541
 Sr         3.7111175267       -0.0928863041        4.0098353310
  O         7.7451532589        1.7741064161        6.0847155164
  O         9.7325102087       -0.1980693318        6.1861080107
  O         9.7853101243        1.7636711911        4.0885710969
 Ti         9.6041067543        1.8454538582        5.9055792563
 Sr         7.6171900961       -0.0907573927        3.9979819300
  O        -0.0324705832        5.7583065937        6.0520989633
  O         1.9253903075        3.7430736665        5.9881485499
  O         1.9526434420        5.7585860732        4.0932097165
 Ti         1.8343072074        5.8103735646        5.9644533956
 Sr        -0.0421824223        3.7859209572        4.0817089169
  O         3.8254636088        5.6484502045        6.1400388023
  O         5.7440737190        3.7064388853        6.0200203812
  O         5.7572539235        5.6711207276        4.1198338303
 Ti         5.6610218106        5.7984088190        5.9445238984
 Sr         3.7608555570        3.8983078754        4.0326573133
  O         7.7223720047        5.6690707253        6.0576118523
  O         9.6578611134        3.7491504652        5.9702343660
  O         9.7468327329        5.7004023512        4.1508899128
 Ti         9.5593181344        5.7751161714        5.9363802450
 Sr         7.6096848225        3.7812076174        4.0975251965
  O        -0.0363331761        9.5646721361        5.9268573425
  O         2.0306225902        7.6987898909        6.0300483886
  O         1.8605707661        9.6287190558        4.0541833100
 Ti         1.7616257309        9.6958987679        5.9555520834
 Sr        -0.1722511833        7.7203763597        4.0547892893
  O         3.8163201003        9.7407028716        6.0972209088
  O         5.7092582897        7.6838578729        6.0711370165
  O         5.7573187381        9.6992290032        4.1061122315
 Ti         5.6270936936        9.7118975582        5.8858419610
 Sr         3.7170554487        7.7335721612        3.9783130175
  O         7.7227772738        9.5988081659        6.1194620522
  O         9.7266981181        7.6536014545        6.0840044829
  O         9.5751915737        9.6804506706        4.1644957316
 Ti         9.5346290599        9.6713792723        5.9683913424
 Sr         7.5994834298        7.7471011151        3.9657165657
  O        -0.0928838388        1.6394299328       10.0152421467
  O         1.9128243845       -0.2423579059        9.8472230403
  O         1.9146523526        1.8531149153        8.0163735757
 Ti         1.7937743012        1.9164165357        9.9092782432
 Sr        -0.0427460851       -0.1182801575        7.9391433901
  O         3.8093376655        1.7472849075        9.8776392773
  O         5.8062542098       -0.1907570204        9.9392503931
  O         5.8121105206        1.7944418041        8.0264255997
 Ti         5.7497224003        1.9498124352        9.8303254969
 Sr         3.7916254195       -0.1187635781        8.0148908059
  O         7.7686546024        1.8259123514        9.9688834817
  O         9.6420509419       -0.1657184456       10.0837535133
  O         9.6725551355        1.8270844730        8.0203621807
 Ti         9.7026640480        1.8365267801        9.8298270689
 Sr         7.5327935408       -0.1096074078        7.9074655727
  O        -0.0646357051        5.6896533644        9.9714981889
  O         1.8672476455        3.7305213593       10.0494259140
  O         1.8540386748        5.6873782992        7.9527733665
 Ti         1.7769055908        5.8505526262        9.8493303644
 Sr        -0.1261451325        3.8899035774        7.8948921134
  O         3.8095120201        5.6515562192       10.0225257056
  O         5.7468073856        3.7543721495        9.9354561694
  O         5.7703069746        5.7289287346        8.0012302508
 Ti         5.6726620238        5.7745708011        9.8521342427
 Sr         3.7946370213        3.8307764696        7.9281007383
  O         7.7487748448        5.5420668198       10.0215831825
  O         9.8404397538        3.7052693933       10.1162702135
  O         9.6386016381        5.5596765535        8.0055630306
 Ti         9.6121603502        5.7351803843        9.8783110380
 Sr         7.7018254377        3.7035454785        7.8605090624
  O        -0.1196264376        9.5884700652       10.0584665021
  O         1.8911987637        7.6135224927        9.9917051498
  O         1.7681809065        9.5385134426        7.9822838310
 Ti         1.7598671975        9.7091821687        9.8516992108
 Sr        -0.1783785971        7.6982611097        7.9448034325
  O         3.7962538325        9.5970616502        9.9577298612
  O         5.8639181462        7.6234636256        9.9593394450
  O         5.7323112944        9.5477452777        8.0235885911
 Ti         5.7153207995        9.7380604827        9.8745369796
 Sr         3.7634503702        7.7023487608        7.9437575153
  O         7.7098058323        9.5959097519        9.9146249908
  O         9.6415321001        7.6075176940        9.8335969641
  O         9.7738312690        9.6059150741        7.9913297725
 Ti         9.6212981411        9.6920064272        9.7962412004
 Sr         7.6028928576        7.7482672824        7.9783934917
     135
 i =        4, time =        1.800, E =     -3708.7531780708
  O        -0.1131594907        1.7084279202        2.0572793213
  O         1.8308651679       -0.1975918466        2.1686109438
  O         1.8964795725        1.6487201933        0.1877786270
 Ti         1.8165705586        1.8720385640        2.0726078679
 Sr        -0.1823344558       -0.0439472121        0.2479213115
  O         3.8344394892        1.6829054875        2.1465513655
  O         5.8632042816       -0.1886098633        2.0598831973
  O         5.7534128941        1.7560326394        0.1604546533
 Ti         5.6859995857        1.8801782829        1.9558191852
 Sr         3.7050638096       -0.0652385534        0.0989352931
  O         7.7273538232        1.8370289169        2.0398232569
  O         9.5676350112       -0.1911906817        2.1931107515
  O         9.6907036621        1.8642717635        0.2697485560
 Ti         9.5969209358        1.9748853563        2.0395189548
 Sr         7.7228245102       -0.0403893422        0.1386047211
  O        -0.0531667419        5.7104755893        2.1949053118
  O         1.9353810427        3.7086460899        2.1690793121
  O         1.8225748265        5.7197222507        0.1493945192
 Ti         1.7908652474        5.8527899164        1.9923317598
 Sr        -0.1757035754        3.8732108157        0.2383350980
  O         3.8602901193        5.6938875718        2.0801861724
  O         5.6556109678        3.7432331893        2.1164469091
  O         5.8116235792        5.7211474169        0.2035620928
 Ti         5.6963319948        5.7843850197        2.0160828052
 Sr         3.8284587097        3.8334058422        0.1170354077
  O         7.7327053007        5.6812892637        2.1977259320
  O         9.7847762754        3.7606513710        2.2531054922
  O         9.7027094629        5.7266447840        0.2612092002
 Ti         9.6180018722        5.8608056790        2.1185463835
 Sr         7.7340208372        3.8241065380        0.1358325514
  O        -0.1037954742        9.5451931328        2.2402264532
  O         1.9422532000        7.5975480632        2.1314021912
  O         1.8838094104        9.5961952983        0.1878195649
 Ti         1.8868425390        9.7243361911        2.0410712090
 Sr        -0.1887357548        7.7560354109        0.0453895451
  O         3.8095405770        9.5654194900        2.1743421497
  O         5.7216001547        7.6658471410        2.1897043251
  O         5.6732803798        9.5669230347        0.1839862446
 Ti         5.7300085068        9.7249013285        1.9948669327
 Sr         3.7773089453        7.7556596749        0.0738116042
  O         7.6509420069        9.4851285343        2.1376100092
  O         9.6607547572        7.6789232576        2.3090824026
  O         9.6541879462        9.5014315097        0.2622794256
 Ti         9.6044349790        9.6862062245        2.0336612486
 Sr         7.6721408710        7.7013786419        0.0693994349
  O        -0.0928903260        1.8542275132        6.1491035461
  O         1.8108915486       -0.1475967061        6.1460590125
  O         1.8307105441        1.6623441688        4.1027911902
 Ti         1.7446258152        1.8747583827        6.0130028560
 Sr        -0.1543029393       -0.1750891219        4.0812655031
  O         3.8160672880        1.8446900998        6.0488737192
  O         5.8569056958       -0.1379428765        6.0583174740
  O         5.7712138170        1.7684634767        4.0590037553
 Ti         5.6150276646        1.8573725762        5.9309419807
 Sr         3.7095167097       -0.0941313980        4.0109474275
  O         7.7441425806        1.7721963661        6.0847817154
  O         9.7316476394       -0.1975610714        6.1852295005
  O         9.7834699789        1.7612622579        4.0886206545
 Ti         9.6055795854        1.8454372772        5.9048943870
 Sr         7.6169760144       -0.0903439631        3.9973127094
  O        -0.0310105675        5.7567939045        6.0534591483
  O         1.9263942468        3.7396420390        5.9896818732
  O         1.9549145380        5.7578396443        4.0923782888
 Ti         1.8338877147        5.8098703208        5.9646571478
 Sr        -0.0430969444        3.7861247403        4.0815201221
  O         3.8263149939        5.6475546061        6.1430687768
  O         5.7437812382        3.7081624605        6.0216387212
  O         5.7596533949        5.6710771124        4.1200232900
 Ti         5.6607840534        5.7985050922        5.9456928904
 Sr         3.7608301237        3.8982810700        4.0316931345
  O         7.7207630966        5.6674022640        6.0567247004
  O         9.6552106957        3.7484492036        5.9715234989
  O         9.7471474749        5.7012651346        4.1479085105
 Ti         9.5579827973        5.7742085368        5.9361608818
 Sr         7.6095970238        3.7813092055        4.0970314474
  O        -0.0357869646        9.5649510029        5.9297360569
  O         2.0305612412        7.6987332582        6.0285862842
  O         1.8594790132        9.6299609416        4.0555816017
 Ti         1.7632869959        9.6957613739        5.9541607514
 Sr        -0.1719072712        7.7204898990        4.0548955560
  O         3.8160375312        9.7409898990        6.0981273999
  O         5.7112029168        7.6853112171        6.0708604515
  O         5.7601337861        9.6982531895        4.1081930555
 Ti         5.6271010180        9.7104235885        5.8855105657
 Sr         3.7159960683        7.7339066567        3.9783154359
  O         7.7189303712        9.5963497445        6.1184371135
  O         9.7246122591        7.6525368448        6.0865794283
  O         9.5743352210        9.6818219375        4.1647489681
 Ti         9.5336860054        9.6706879286        5.9697547135
 Sr         7.5992254486        7.7469892160        3.9657080106
  O        -0.0963127373        1.6383901358       10.0149216365
  O         1.9102921608       -0.2448460907        9.8488740617
  O         1.9136521392        1.8516171385        8.0160577871
 Ti         1.7943243559        1.9154144302        9.9094552329
 Sr        -0.0420218570       -0.1180862113        7.9384582537
  O         3.8078929802        1.7459020084        9.8752408802
  O         5.8065605841       -0.1897992368        9.9375934937
  O         5.8132610084        1.7950798714        8.0283609448
 Ti         5.7489976155        1.9493943063        9.8308658893
 Sr         3.7909583328       -0.1183988757        8.0143941078
  O         7.7686824438        1.8249893960        9.9693689946
  O         9.6440514436       -0.1648208294       10.0855696777
  O         9.6730060466        1.8282825311        8.0233297832
 Ti         9.7037126787        1.8372341795        9.8303089813
 Sr         7.5323339066       -0.1098614655        7.9075171178
  O        -0.0650015648        5.6894171676        9.9695887181
  O         1.8659543716        3.7313856584       10.0481321206
  O         1.8534402253        5.6861973180        7.9519154575
 Ti         1.7774198384        5.8519689954        9.8493764238
 Sr        -0.1262879645        3.8896104249        7.8937118814
  O         3.8111017479        5.6528797772       10.0221926607
  O         5.7462306349        3.7527373389        9.9376354330
  O         5.7679961412        5.7300847091        8.0013561508
 Ti         5.6740228655        5.7752552440        9.8526342099
 Sr         3.7941130960        3.8307561865        7.9275483000
  O         7.7491928760        5.5428256376       10.0239133498
  O         9.8395245433        3.7032618866       10.1161140458
  O         9.6380697454        5.5558252219        8.0058447884
 Ti         9.6123865113        5.7351460369        9.8777058267
 Sr         7.7008530399        3.7025461722        7.8601518067
  O        -0.1181632593        9.5891819428       10.0587264666
  O         1.8910526839        7.6147811132        9.9898082295
  O         1.7706774158        9.5357118813        7.9832944649
 Ti         1.7598399397        9.7097264126        9.8527432913
 Sr        -0.1783156271        7.6989304715        7.9447395194
  O         3.7986486344        9.5944558729        9.9569463625
  O         5.8661618170        7.6235878083        9.9585966339
  O         5.7331712502        9.5458227338        8.0254816844
 Ti         5.7155346429        9.7383799060        9.8755010306
 Sr         3.7630613378        7.7022747653        7.9443275755
  O         7.7092749632        9.5938192321        9.9140584409
  O         9.6425785576        7.6065445603        9.8334859171
  O         9.7731638362        9.6072681820        7.9912382285
 Ti         9.6205785329        9.6927775656        9.7966812551
 Sr         7.6016099925        7.7481223984        7.9789836561
     135
 i =        5, time =        2.400, E =     -3708.7540357422
  O        -0.1156766462        1.7101619708        2.0567992374
  O         1.8310105898       -0.1977139950        2.1696286088
  O         1.9003141051        1.6491695975        0.1891500244
 Ti         1.8161368569        1.8716276507        2.0731428239
 Sr        -0.1845513749       -0.0427405386        0.2485747966
  O         3.8366028702        1.6841326083        2.1472112961
  O         5.8645813924       -0.1894845314        2.0610834837
  O         5.7527981966        1.7553462727        0.1625226753
 Ti         5.6859249525        1.8804697208        1.9563000981
 Sr         3.7037653064       -0.0653655030        0.0984849368
  O         7.7255740253        1.8354996618        2.0430212102
  O         9.5681810186       -0.1922392452        2.1943767467
  O         9.6903381696        1.8630900796        0.2694953271
 Ti         9.5962071906        1.9738882111        2.0404721187
 Sr         7.7231683636       -0.0405086027        0.1376049029
  O        -0.0501724030        5.7108881503        2.1931774710
  O         1.9358841910        3.7101010092        2.1710453312
  O         1.8221189936        5.7190492390        0.1504653412
 Ti         1.7918966875        5.8521687846        1.9930925942
 Sr        -0.1768457803        3.8739767517        0.2377198231
  O         3.8614669980        5.6919306368        2.0807192880
  O         5.6588435010        3.7424801550        2.1181145235
  O         5.8122551973        5.7203262911        0.2034195559
 Ti         5.6988917027        5.7836118228        2.0164781894
 Sr         3.8275447935        3.8332021640        0.1170675859
  O         7.7329716938        5.6804031601        2.1986890296
  O         9.7838465041        3.7599805952        2.2524580719
  O         9.7042045166        5.7255138543        0.2621001376
 Ti         9.6178976080        5.8613277817        2.1193445651
 Sr         7.7336115613        3.8239353419        0.1353802097
  O        -0.1027852184        9.5454299186        2.2407246046
  O         1.9439119734        7.5990320340        2.1320005068
  O         1.8849617345        9.5941324351        0.1891598235
 Ti         1.8873369542        9.7236043512        2.0399658247
 Sr        -0.1888695944        7.7570606133        0.0460474511
  O         3.8116293517        9.5649491064        2.1727222970
  O         5.7229410740        7.6653479313        2.1904715847
  O         5.6719337605        9.5672250778        0.1835226557
 Ti         5.7311299691        9.7243870480        1.9957218338
 Sr         3.7774289783        7.7553237187        0.0730768098
  O         7.6511702213        9.4843334046        2.1382947304
  O         9.6584857063        7.6793165366        2.3051907000
  O         9.6542992227        9.5011207915        0.2632597016
 Ti         9.6030453488        9.6847447148        2.0344999653
 Sr         7.6720155858        7.7015078505        0.0678738482
  O        -0.0928452917        1.8542639586        6.1474207062
  O         1.8119806161       -0.1499544732        6.1458044431
  O         1.8299515444        1.6643410893        4.1020366036
 Ti         1.7459422143        1.8739784716        6.0128265700
 Sr        -0.1540542155       -0.1746010761        4.0813550955
  O         3.8163011847        1.8448555851        6.0486013683
  O         5.8561169403       -0.1369793842        6.0581272337