     135
 i =        2, time =        0.600, E =     -3708.7511931507
  O         1.0452151279        0.2577091025        0.3467833853
  O         0.3643837878        0.3370735919       -0.2950138495
  O         0.0742498242        0.2653110102        0.1167365988
 Ti        -0.7154689642        0.0149519867        0.0471869123
 Sr         0.0832220197       -0.1412757097       -0.2649159224
  O        -0.3273588103       -0.1789796569       -0.1831667595
  O        -0.1946894578        0.6627028226        0.1726795801
  O        -0.0712970761        0.1530804812       -0.3988078225
 Ti         0.0644749177        0.3774316855        1.2701082993
 Sr         0.2793472551       -0.1403093390       -0.2551130484
  O        -0.6870819970        0.2064341349        0.6918223626
  O         0.1258608486       -0.0737581015       -0.4251716505
  O        -0.0035137272       -0.4009555087       -1.1013608046
 Ti         0.4035595020       -0.8746073312        0.9379461494
 Sr        -0.0053816495        0.0482208964       -0.2379924709
  O        -0.1570614759       -0.0350962073       -0.0885748531
  O        -0.1387027772       -0.1661669730       -0.1716032824
  O         0.1437729635       -0.1928427834        0.5059040801
 Ti         0.1902296025       -0.9818551742        0.3666250137
 Sr         0.2060624291       -0.1111626330       -0.3621970849
  O        -0.6447195490       -0.1725299964        0.0796140740
  O         0.4876982905       -0.4587802031        0.0092394438
  O         0.1496337213       -0.1727533692       -0.5321816474
 Ti        -0.0543434271        0.6930735509        0.3265201074
 Sr        -0.4773576979        0.1031839510        0.0336976702
  O         0.2040139404       -0.1717727966        0.0896883460
  O        -0.4022970172        0.6291266391       -0.1542540143
  O         0.0351903188        0.3488202253       -0.0955293278
 Ti        -0.2114800668       -0.4876539321        0.0968169896
 Sr         0.0172786947       -0.0248871445       -0.1817298572
  O        -0.0320677097        0.2744687922       -0.4498319458
  O        -0.0284535760        1.5003898242        0.0092685934
  O        -0.1546931272       -0.1390297882        0.0429259684
 Ti        -1.1767837743       -0.4469290299        0.2759585642
 Sr         0.2459361768       -0.0557057122        0.4908742867
  O         0.0587658439        0.3828770450       -0.1566674580
  O         0.1705413768       -0.5442324623        0.0642364013
  O         0.1954275131       -0.0836691388       -0.3784355057
 Ti         0.0971255985       -0.8983526757        0.1587984883
 Sr         0.0264527787       -0.0255799367        0.2048945298
  O         0.3735318794        0.1514071657       -0.0257191393
  O        -0.0896490223       -0.4272978168       -0.1542582987
  O        -0.0708606789       -0.1505925749       -1.1086871308
 Ti         0.2296394226        0.2528090493        1.1648551835
 Sr        -0.1593398836        0.0955394443        0.1162033738
  O         0.0844608964       -0.0136738988       -0.1460384978
  O         0.2317102828        0.0651976140       -0.0977467278
  O         0.0222691329        0.3928900163        0.1185897630
 Ti         0.3796539374        0.0730497064       -0.3146122595
 Sr        -0.0684582059        0.0847488393       -0.4270380899
  O        -0.2907195981       -0.4986013349        0.1761001512
  O        -0.3481255676        0.1326818288        0.1031820196
  O         0.1496989352       -0.1239035183        0.3431338114
 Ti         0.6177464467       -0.1520013938       -0.5956277828
 Sr         0.0237777752        0.0867075877        0.0916096524
  O         0.2251769861        0.0915526735       -0.3901976493
  O         0.1743643254        0.8388769448       -0.4030967801
  O        -0.4237373626       -0.3366840903        0.4197278343
 Ti        -0.2884303000        0.0756297770        0.4026305577
 Sr         0.1804673242        0.0296040016       -0.0322812669
  O         0.1551019545       -0.2523547742        0.1755312515
  O        -0.2569987710       -0.1005331067       -0.0523623156
  O         0.0614085640       -0.3196152155        0.1223930864
 Ti        -0.5890307202        0.5343609501       -0.6029712504
 Sr        -0.4517055484        0.3001547327       -0.1623358211
  O         0.2880748338        0.0679965117       -0.1102701779
  O         0.4207822232        0.5662546264        0.3312281822
  O        -0.0144832275       -0.0456030963       -0.1935552602
 Ti         0.2474127658        0.2981384111        0.2493674996
 Sr        -0.0019959031       -0.2928260210       -0.1275964617
  O        -0.5491133147        0.0914353659       -0.1441900763
  O         0.2042131915       -0.4598402854        0.2218943537
  O        -0.1142717181        0.0189837759       -0.8855224478
 Ti         0.2038214216        0.1599101994        0.6657686119
 Sr         0.0861406434        0.1693242331       -0.2805627761
  O        -0.5939885089       -0.0423421885        0.4539335649
  O        -0.0316523770       -0.4026498455        0.1414290575
  O         0.4578794143       -0.0684620245        0.7315223190
 Ti         0.2700221456       -0.2771745058       -0.4115888253
 Sr         0.1919537962        0.1064970966        0.0130673211
  O        -0.0514702433       -0.0420673362       -0.1880911342
  O         0.0940591597       -0.3066164875       -0.4580945291
  O         0.0434283500       -0.3333878462       -0.5873090798
 Ti         0.3309143389       -0.0771441571        1.3546953646
 Sr         0.0368145109       -0.0318755186       -0.0058091776
  O        -0.6724876809       -0.2116415730        0.1865078712
  O        -0.1888959611       -0.1683038864        0.1528223400
  O         0.0381302815       -0.2647905350       -0.5767801215
 Ti         0.2223630969        0.0763240979       -0.1839940693
 Sr         0.0690366487       -0.0221008050        0.1660302851
  O         0.5731090333        0.0707560813       -0.2252356223
  O        -0.1517538252        1.0110373187        0.1992975243
  O        -0.3155073100       -0.0957228885        0.0424811815
 Ti         0.3098856082        0.2507561359       -0.3043596164
 Sr        -0.4554177568        0.2155677251       -0.1228632424
  O         0.5030285602        0.1056871435        0.4261299096
  O        -0.0122843219        0.8650655221        0.1357656893
  O        -0.0894136184       -0.0867896677       -0.6411072029
 Ti        -0.3398684431       -0.8083882220        0.3282971724
 Sr        -0.2429217750        0.1559361400       -0.2773214617
  O        -0.4855401923        0.0618296957        0.1274559766
  O         0.1612977979       -0.4183702907       -0.2248697746
  O         0.2049042432        0.2210056348        0.1772209660
 Ti        -0.6759457503        0.7147931858        0.1711831127
 Sr         0.6727191518        0.0771946444       -0.0570624370
  O        -0.4106559095        0.2316115991       -0.2549983978
  O        -0.2459448533       -0.3596791662       -0.1817234013
  O         0.1804507487       -0.1133669281        1.0042285418
 Ti         0.0210315205       -1.3598788653        0.1806720860
 Sr        -0.1495433621       -0.1761879286        0.0265742683
  O         0.3414868936        0.2701069061       -0.2569426763
  O        -0.0171255023        0.0904550941        0.2924901702
  O        -0.0004090948       -0.1793178740        0.3033395401
 Ti         0.5389827046        0.5498772247       -0.1390453653
 Sr        -0.3174780412       -0.2356492804       -0.0582321817
  O         0.1369971863        0.3678203761       -0.0632494139
  O        -0.1960958148        0.1048015359       -0.3981274873
  O         0.4906373490        0.0788187260        0.5100928390
 Ti        -0.5903137631       -0.5227787923       -0.8019591315
 Sr         0.0669263620        0.4464783341        0.1128880117
  O         0.0647402537       -0.2029062192       -0.2781726875
  O        -0.0745754455        1.0026859462       -0.3251953448
  O        -0.0714538734       -0.1613994009        0.4849483389
 Ti         0.5763851562       -0.3329378903        0.0729769476
 Sr        -0.0072586050        0.0016196066       -0.4614054788
  O         0.2068324804       -0.3066228081       -0.1300076740
  O        -0.3050820213       -0.4738329629        0.1209678727
  O         0.0957499328        0.3365227132        0.0714343263
 Ti        -0.4944642940       -0.8287983588       -0.5592948631
 Sr         0.0890987406        0.4490664598       -0.2375379868
  O         0.6203119434       -0.1641699229        0.2589921377
  O         0.1690339300        0.1851707838        0.6319857584
  O         0.0331792824       -0.0647677199        0.8037761824
 Ti        -0.4428973727        0.4429296962        0.3689736707
 Sr         0.0037145887       -0.1757993086       -0.2998195298
     135
 i =        3, time =        1.200, E =     -3708.7529596024
  O         1.1184593294        0.2572265203        0.3527119335
  O         0.3641771541        0.3598559784       -0.3015056662
  O         0.0575065119        0.2595521576        0.0824062670
 Ti        -0.7153413133        0.0488894820        0.0680593745
 Sr         0.0804617838       -0.1476406727       -0.2625676459
  O        -0.3911380768       -0.1902809321       -0.1733424736
  O        -0.2111374384        0.6781527531        0.1665416094
  O        -0.0707253169        0.1465686914       -0.4488576137
 Ti         0.0910257071        0.3702094955        1.3051257017
 Sr         0.3037498928       -0.1483872284       -0.2427339565
  O        -0.6515249634        0.2154377270        0.6675717841
  O         0.1234877688       -0.0717966730       -0.4264405546
  O        -0.0172460136       -0.3960381877       -1.0704262868
 Ti         0.3773263654       -0.8747344199        0.8970459684
 Sr        -0.0129860648        0.0599422513       -0.2295552421
  O        -0.2097192614       -0.0324578082       -0.0721683753
  O        -0.1495298550       -0.2258226968       -0.1918281007
  O         0.1516070934       -0.1882128264        0.4708460606
 Ti         0.2174928354       -0.9639209170        0.3624148203
 Sr         0.2064039753       -0.1085340833       -0.3580966835
  O        -0.6360586896       -0.1701719183        0.0736113069
  O         0.4788512985       -0.4311705877        0.0066233870
  O         0.1525284875       -0.1718541962       -0.5364975648
 Ti        -0.0853205592        0.6989381174        0.3358586429
 Sr        -0.4675054213        0.1132849981        0.0411100882
  O         0.2151043409       -0.1673610312        0.0853193295
  O        -0.3950232440        0.6426524120       -0.1367002749
  O         0.0364090954        0.3528116914       -0.1121265546
 Ti        -0.2175669215       -0.5110973900        0.0707146336
 Sr         0.0217837488       -0.0334843217       -0.1770291511
  O        -0.0375363763        0.2658792665       -0.4522407320
  O        -0.0322461742        1.4872018663        0.0160704299
  O        -0.1556776002       -0.1368905251        0.0052347745
 Ti        -1.1806301398       -0.4602245396        0.3105609313
 Sr         0.2463294301       -0.0658478527        0.4913324917
  O         0.0078226818        0.3950578614       -0.1399303406
  O         0.1709489795       -0.5540194793        0.0656902056
  O         0.2217836937       -0.0868481877       -0.3575057696
 Ti         0.0849199803       -0.8973365393        0.1359937247
 Sr         0.0391149752       -0.0259796326        0.2165280864
  O         0.3827336427        0.1523880635       -0.0260554819
  O        -0.0607626884       -0.4377200109       -0.1240653397
  O        -0.0700527173       -0.1481260638       -1.1497350777
 Ti         0.2352136699        0.2911284667        1.1678153908
 Sr        -0.1606482549        0.0889913434        0.1251408896
  O         0.0801428448       -0.0180575988       -0.1223385199
  O         0.2370938192        0.1178919120       -0.0935717322
  O         0.0210161894        0.3618748951        0.1224031251
 Ti         0.3655682228        0.0745378852       -0.3168155654
 Sr        -0.0743272856        0.0672841994       -0.4296090147
  O        -0.3205613026       -0.5115759452        0.1844628831
  O        -0.3555097060        0.1176729252        0.1171664172
  O         0.1322195486       -0.1305632701        0.3904090993
 Ti         0.6556366141       -0.1091201695       -0.6512242254
 Sr         0.0397274260        0.0954358034        0.0805283306
  O         0.2576213309        0.1032195068       -0.3830445994
  O         0.1763014829        0.8168541420       -0.3951979338
  O        -0.4176755586       -0.3126228793        0.4376884774
 Ti        -0.3429124481        0.0553875991        0.4206871905
 Sr         0.1795487922        0.0351351813       -0.0228796954
  O         0.1220190817       -0.2434093870        0.1493275328
  O        -0.2571828987       -0.0600907179       -0.0686863779
  O         0.0286267351       -0.3160046183        0.1607576995
 Ti        -0.5487829635        0.5514811467       -0.6057507826
 Sr        -0.4386220383        0.2994721536       -0.1703451982
  O         0.2515293793        0.0854060268       -0.1380291444
  O         0.4223652742        0.5205664745        0.3357988541
  O        -0.0478469417       -0.0443712283       -0.1809766499
 Ti         0.2462485219        0.2859515986        0.2163826703
 Sr         0.0168863499       -0.2943303090       -0.1240376132
  O        -0.4910460860        0.1130106203       -0.1345401258
  O         0.2345813498       -0.4386337158        0.1983259296
  O        -0.1061478888        0.0244627982       -0.8263806071
 Ti         0.1736148265        0.1496224621        0.6516506199
 Sr         0.0657004989        0.1584767386       -0.2779585774
  O        -0.6059084663       -0.0569336545        0.4516540690
  O        -0.0330285545       -0.4333775183        0.1326909560
  O         0.4815175248       -0.0673090029        0.7042908589
 Ti         0.2467766095       -0.3088797513       -0.3789645905
 Sr         0.1917961314        0.1144946426        0.0097926417
  O        -0.0537818773       -0.0483891759       -0.1911714355
  O         0.0826373961       -0.3319325004       -0.4556632545
  O         0.0147922599       -0.3364270216       -0.6641221664
 Ti         0.3537954156       -0.0578172465        1.4089979809
 Sr         0.0491319234       -0.0427078196       -0.0130254456
  O        -0.5831492707       -0.2002196473        0.2001402301
  O        -0.1736383848       -0.1793714000        0.1533035962
  O         0.0515311670       -0.2904126120       -0.5451633579
 Ti         0.1846210600        0.0997983767       -0.2197704767
 Sr         0.0581860361       -0.0244639685        0.1722577418
  O         0.6989050458        0.0743683093       -0.2116248961
  O        -0.1294669226        1.1073899636        0.1979300416
  O        -0.3253114587       -0.1045785387        0.0650934011
 Ti         0.2878786463        0.2957955030       -0.3144107121
 Sr        -0.4640165111        0.2060954896       -0.1206006333
  O         0.4919216476        0.1137890350        0.4400575923
  O        -0.0161714094        0.8609834032        0.1454094482
  O        -0.0961348848       -0.0885619655       -0.6881172219
 Ti        -0.2956687276       -0.8271171801        0.3547700388
 Sr        -0.2366210751        0.1395152247       -0.2725509966
  O        -0.5189394419        0.0609166523        0.1303539968
  O         0.1380338261       -0.4796902852       -0.2304889101
  O         0.2003897398        0.2086614246        0.0835551392
 Ti        -0.7066235828        0.7130282192        0.1928533341
 Sr         0.6705093451        0.0809866503       -0.0604798314
  O        -0.4012230452        0.2327294083       -0.2470313365
  O        -0.2361121010       -0.4120565016       -0.1734119250
  O         0.1883844621       -0.1043084980        1.0152509813
 Ti         0.0080980655       -1.3810433256        0.1736695992
 Sr        -0.1435451696       -0.1762624749        0.0441930542
  O         0.3031365852        0.2609181606       -0.2510083541
  O        -0.0155205712        0.1226766581        0.2867285045
  O         0.0306520295       -0.1828821894        0.3176502595
 Ti         0.5366221941        0.5515473042       -0.1346197978
 Sr        -0.3100626018       -0.2313634207       -0.0503852483
  O         0.1289622815        0.3631578628       -0.0739783001
  O        -0.1904461511        0.1630749350       -0.3832516708
  O         0.4783761150        0.1132867500        0.4958229363
 Ti        -0.5829996794       -0.5432399188       -0.7912304042
 Sr         0.0694469754        0.4366633379        0.1157774980
  O         0.0205363480       -0.2181614153       -0.2788946298
  O        -0.0766927050        0.9775843114       -0.3089474164
  O        -0.0815775896       -0.1482397563        0.4844289907
 Ti         0.5771614935       -0.4163012703        0.0353809285
 Sr         0.0013391294        0.0049815720       -0.4562346385
  O         0.1608673137       -0.3004547558       -0.1166721941
  O        -0.3280983463       -0.4920917261        0.1391614235
  O         0.0898892395        0.3527332311        0.0447361124
 Ti        -0.4985831951       -0.8376550711       -0.5705410424
 Sr         0.0939011189        0.4552605397       -0.2348873874
  O         0.6604928648       -0.1477353829        0.2686958951
  O         0.1676395351        0.2155562447        0.6295572134
  O         0.0298254845       -0.0608055307        0.8213086274
 Ti        -0.4195956762        0.4549069846        0.3743055494
 Sr        -0.0013168222       -0.1686743303       -0.3046682977
     135
 i =        4, time =        1.800, E =     -3708.7531780708
  O         1.1751077312        0.2584217408        0.3561771651
  O         0.3643559384        0.3756671720       -0.3045647990
  O         0.0545295754        0.2616561387        0.0556526877
 Ti        -0.7039615166        0.0812484714        0.0736848943
 Sr         0.0717900452       -0.1541178159       -0.2617726435
  O        -0.4520547717       -0.1918148687       -0.1685148951
  O        -0.2252272918        0.6749644131        0.1605470771
  O        -0.0692674516        0.1421769103       -0.4921909232
 Ti         0.1129939577        0.3646005179        1.3379077310
 Sr         0.3267503741       -0.1530297673       -0.2306952796
  O        -0.6056400850        0.2274516294        0.6408035292
  O         0.1231548768       -0.0673100811       -0.4253479872
  O        -0.0317669000       -0.3951350962       -1.0327634947
 Ti         0.3536826539       -0.8672761155        0.8641081611
 Sr        -0.0167834507        0.0720831197       -0.2236100678
  O        -0.2506680390       -0.0294351848       -0.0558810958
  O        -0.1618845068       -0.2804743841       -0.2021198567
  O         0.1587190233       -0.1824625735        0.4354979099
 Ti         0.2373429341       -0.9376473460        0.3564276517
 Sr         0.2036062678       -0.1073481245       -0.3546653255
  O        -0.6160106864       -0.1682527587        0.0681940993
  O         0.4685420384       -0.4125271036       -0.0000084842
  O         0.1538954282       -0.1663589638       -0.5289882546
 Ti        -0.1203687891        0.6982060610        0.3379093890
 Sr        -0.4625979185        0.1203947134        0.0471148807
  O         0.2262074225       -0.1607112182        0.0811830435
  O        -0.3893925856        0.6467697305       -0.1253855580
  O         0.0385323218        0.3505152590       -0.1224560985
 Ti        -0.2253314880       -0.5314408238        0.0456944433
 Sr         0.0271487316       -0.0435258662       -0.1735774179
  O        -0.0403968170        0.2547812690       -0.4553266303
  O        -0.0374503466        1.4594279698        0.0243550609
  O        -0.1562064064       -0.1314819063       -0.0181155369
 Ti        -1.1834528498       -0.4680926328        0.3222844086
 Sr         0.2445074261       -0.0736380595        0.4919223881
  O        -0.0352878912        0.4027414515       -0.1162232791
  O         0.1728402484       -0.5537663348        0.0615234090
  O         0.2438422337       -0.0895442195       -0.3349902538
 Ti         0.0692609762       -0.8868048681        0.1047720949
 Sr         0.0466735224       -0.0276549427        0.2264392108
  O         0.3898434819        0.1553690426       -0.0350570651
  O        -0.0354110214       -0.4455712168       -0.1128492579
  O        -0.0684020004       -0.1447969110       -1.1767366470
 Ti         0.2388466660        0.3237487726        1.1732179350
 Sr        -0.1576165109        0.0858034179        0.1325755860
  O         0.0718972857       -0.0246130704       -0.1035870093
  O         0.2391293250        0.1590998788       -0.0907040639
  O         0.0248095225        0.3361132672        0.1313962374
 Ti         0.3621203834        0.0786245528       -0.3202570125
 Sr        -0.0838894807        0.0544422245       -0.4300401052
  O        -0.3389894635       -0.5240269664        0.1921969762
  O        -0.3623227017        0.1150803710        0.1292645506
  O         0.1184053594       -0.1320879473        0.4376505639
 Ti         0.6846012075       -0.0758337021       -0.7018670061
 Sr         0.0552198250        0.1061811439        0.0743270651
  O         0.2890799589        0.1149432082       -0.3764418885
  O         0.1748345820        0.7901691536       -0.3864880128
  O        -0.4089328926       -0.2835508032        0.4409541967
 Ti        -0.3884910839        0.0313500872        0.4423902444
 Sr         0.1789726618        0.0437236017       -0.0154170629
  O         0.0924229099       -0.2398229404        0.1222382147
  O        -0.2606878069       -0.0245426515       -0.0741418838
  O        -0.0061617387       -0.3098707222        0.2007101989
 Ti        -0.5089408215        0.5671978182       -0.6010990472
 Sr        -0.4300736511        0.2924291313       -0.1805040922
  O         0.2213761432        0.0978753810       -0.1723661422
  O         0.4220005343        0.4689853771        0.3422105245
  O        -0.0737779605       -0.0363805174       -0.1646787804
 Ti         0.2452252013        0.2728000504        0.1922322556
 Sr         0.0330486926       -0.2987703838       -0.1211060146
  O        -0.4364949735        0.1294194734       -0.1283769066
  O         0.2520804910       -0.4208700705        0.1739321839
  O        -0.0959833691        0.0304862126       -0.7587580266
 Ti         0.1564999079        0.1515437257        0.6432430802
 Sr         0.0490566582        0.1446582861       -0.2760030768
  O        -0.6218470252       -0.0644906062        0.4486105118
  O        -0.0383644531       -0.4627355582        0.1293637740
  O         0.4929261501       -0.0686892452        0.6845019927
 Ti         0.2268812085       -0.3261998540       -0.3503288779
 Sr         0.1946367999        0.1246266313        0.0054857699
  O        -0.0511493703       -0.0513466579       -0.1953913807
  O         0.0736032454       -0.3538874515       -0.4530961506
  O        -0.0139657071       -0.3322736659       -0.7143632746
 Ti         0.3649326724       -0.0585947451        1.4340463571
 Sr         0.0595335548       -0.0525311102       -0.0190457892
  O        -0.4872224191       -0.1902079645        0.2082744703
  O        -0.1730229972       -0.1900170330        0.1463565440
  O         0.0637977878       -0.3168144629       -0.5163943551
 Ti         0.1546296352        0.1274402838       -0.2381693051
 Sr         0.0489743769       -0.0259481762        0.1802468608
  O         0.8108894328        0.0774566245       -0.2002781713
  O        -0.1142448615        1.1848105956        0.1958284978
  O        -0.3350771702       -0.1089178993        0.0832107537
 Ti         0.2692182380        0.3395007359       -0.3192172087
 Sr        -0.4724500140        0.1988634217       -0.1189634736
  O         0.4775072750        0.1235045480        0.4560105562
  O        -0.0164859076        0.8413094436        0.1530101191
  O        -0.1003437549       -0.0840031293       -0.7213506808
 Ti        -0.2593932302       -0.8421684816        0.3672627428
 Sr        -0.2269020656        0.1250202961       -0.2727246985
  O        -0.5422497943        0.0566423722        0.1355709734
  O         0.1171178254       -0.5439620951       -0.2328895698
  O         0.1983485067        0.1978957716       -0.0050981730
 Ti        -0.7357305223        0.7066847114        0.2156202410
 Sr         0.6685604721        0.0864178289       -0.0622604764
  O        -0.3873165241        0.2339965760       -0.2392324822
  O        -0.2245628910       -0.4622269863       -0.1670738899
  O         0.1934287910       -0.0966737959        1.0210639651
 Ti        -0.0047177179       -1.3932908117        0.1797828071
 Sr        -0.1418633625       -0.1807750479        0.0610476674
  O         0.2689921164        0.2567061222       -0.2446842503
  O        -0.0156539651        0.1479033218        0.2826447411
  O         0.0619422055       -0.1777431950        0.3261658754
 Ti         0.5265132635        0.5422280556       -0.1349745536
 Sr        -0.3027981149       -0.2273981516       -0.0471842275
  O         0.1234347428        0.3599818234       -0.0819026319
  O        -0.1872273213        0.2235941468       -0.3705964909
  O         0.4659101490        0.1428616440        0.4740536884
 Ti        -0.5697802054       -0.5572707634       -0.7774130228
 Sr         0.0731623913        0.4261916661        0.1155198103
  O        -0.0130189980       -0.2293240065       -0.2798073575
  O        -0.0818896446        0.9373473043       -0.3008492276
  O        -0.0883534748       -0.1395843774        0.4838259171
 Ti         0.5720397812       -0.4917934135       -0.0032284488
 Sr         0.0099895301        0.0116877941       -0.4501408397
  O         0.1230822306       -0.2920524554       -0.1023057622
  O        -0.3442576995       -0.5041181990        0.1560383151
  O         0.0826803908        0.3606230322        0.0228463140
 Ti        -0.5125872085       -0.8277461059       -0.5704865668
 Sr         0.0979002397        0.4617307374       -0.2328253917
  O         0.7011936668       -0.1340858867        0.2755666965
  O         0.1658741406        0.2321527673        0.6232220195
  O         0.0300193190       -0.0554843519        0.8319948244
 Ti        -0.4148441336        0.4747275538        0.3743881336
 Sr        -0.0049842390       -0.1617956161       -0.3078252557
     135
 i =        5, time =        2.400, E =     -3708.7540357422
  O         1.2263155425        0.2575915296        0.3632505559
  O         0.3668573200        0.3910518153       -0.3090434221
  O         0.0491208108        0.2637098792        0.0279501985
 Ti        -0.6977872633        0.1133273711        0.0842135785
 Sr         0.0691667909       -0.1614642927       -0.2630235025
  O        -0.5075387940       -0.1955891549       -0.1599433148
  O        -0.2392486567        0.6676051865        0.1558394296
  O        -0.0672608586        0.1405020727       -0.5369986450
 Ti         0.1385051761        0.3542343973        1.3709797387
 Sr         0.3503223287       -0.1580968825       -0.2166662810
  O        -0.5501274324        0.2345357614        0.6096419120
  O         0.1212064289       -0.0611111975       -0.4271136233
  O        -0.0452906532       -0.3908069258       -0.9858704711
 Ti         0.3265011596       -0.8525845171        0.8228712215
 Sr        -0.0218327391        0.0847194719       -0.2160436829
  O        -0.2935485906       -0.0247434019       -0.0401274928
  O        -0.1736644342       -0.3312968538       -0.2138536347
  O         0.1678852553       -0.1740930109        0.3953358956
 Ti         0.2562909070       -0.9105922835        0.3571452483
 Sr         0.2040875646       -0.1081163432       -0.3496891971
  O        -0.5995373272       -0.1633451159        0.0639277318
  O         0.4503601678       -0.3866440128       -0.0038533714
  O         0.1552265134       -0.1631153033       -0.5204640417
 Ti        -0.1537612269        0.6981399725        0.3373529009
 Sr        -0.4551302057        0.1261822906        0.0538956739
  O         0.2357674875       -0.1559105880        0.0757844921
  O        -0.3848410714        0.6432888360       -0.1140591551
  O         0.0392033156        0.3468438505       -0.1302787419
 Ti        -0.2308071222       -0.5513133021        0.0172495914
 Sr         0.0291506140       -0.0539179405       -0.1694574196
  O        -0.0430029188        0.2463017203       -0.4555995488
  O        -0.0434299359        1.4279777435        0.0327034492
  O        -0.1551252721       -0.1250670721       -0.0442868044
 Ti        -1.1908516107       -0.4811732561        0.3353977805
 Sr         0.2442964495       -0.0815174974        0.4934947224
  O        -0.0804682242        0.4120834840       -0.0912804853
  O         0.1735769115       -0.5588360229        0.0608669712
  O         0.2698052226       -0.0928739201       -0.3076837996
 Ti         0.0570898609       -0.8692598824        0.0758653502
 Sr         0.0529395531       -0.0298031736        0.2357195892
  O         0.3928149296        0.1568887171       -0.0428482599
  O        -0.0097260674       -0.4495390853       -0.0996464262
  O        -0.0687814769       -0.1423063859       -1.1945246550
 Ti         0.2460993675        0.3548836911        1.1683761060
 Sr        -0.1538723746        0.0819437572        0.1421813460
  O         0.0688436695       -0.0314516508       -0.0836428448
  O         0.2425927871        0.1995908525       -0.0920105910
  O         0.0281069823        0.3060217132        0.1388627123
 Ti         0.3519853705        0.0826430824       -0.3257463256
 Sr        -0.0905026956        0.0443690979       -0.4300647775
  O        -0.3551044619       -0.5357821990        0.2029778317
  O        -0.3678308719        0.1061873816        0.1402856027